
    -----------------------------------------------------------------------
          Psi4: An Open-Source Ab Initio Electronic Structure Package
                               Psi4 1.4a2.dev224 

                         Git: Rev {master} e453b16 


    R. M. Parrish, L. A. Burns, D. G. A. Smith, A. C. Simmonett,
    A. E. DePrince III, E. G. Hohenstein, U. Bozkaya, A. Yu. Sokolov,
    R. Di Remigio, R. M. Richard, J. F. Gonthier, A. M. James,
    H. R. McAlexander, A. Kumar, M. Saitow, X. Wang, B. P. Pritchard,
    P. Verma, H. F. Schaefer III, K. Patkowski, R. A. King, E. F. Valeev,
    F. A. Evangelista, J. M. Turney, T. D. Crawford, and C. D. Sherrill,
    J. Chem. Theory Comput. 13(7) pp 3185--3197 (2017).
    (doi: 10.1021/acs.jctc.7b00174)


                         Additional Contributions by
    P. Kraus, H. Kruse, M. H. Lechner, M. C. Schieber, R. A. Shaw,
    A. Alenaizan, R. Galvelis, Z. L. Glick, S. Lehtola, and J. P. Misiewicz

    -----------------------------------------------------------------------


    Psi4 started on: Thursday, 16 January 2020 09:03PM

    Process ID: 22691
    Host:       penguin
    PSIDATADIR: /home/matthewmcallisterdavis/miniconda3/envs/psi/share/psi4
    Memory:     500.0 MiB
    Threads:    1
    
  ==> Input File <==

--------------------------------------------------------------------------
memory 2 GB

molecule {
0 1
O
H 1 1.1
H 1 1.1 2 104.0
}

set basis cc-pvdz
set scf {
    d_convergence 14
}
set ccenergy {
    maxiter 40
    e_convergence 1E-40
}
energy('ccsd')
--------------------------------------------------------------------------

  Memory set to   1.863 GiB by Python driver.

Scratch directory: /tmp/

*** tstart() called on penguin
*** at Thu Jan 16 21:03:16 2020

   => Loading Basis Set <=

    Name: CC-PVDZ
    Role: ORBITAL
    Keyword: BASIS
    atoms 1   entry O          line   198 file /home/matthewmcallisterdavis/miniconda3/envs/psi/share/psi4/basis/cc-pvdz.gbs 
    atoms 2-3 entry H          line    22 file /home/matthewmcallisterdavis/miniconda3/envs/psi/share/psi4/basis/cc-pvdz.gbs 


         ---------------------------------------------------------
                                   SCF
               by Justin Turney, Rob Parrish, Andy Simmonett
                          and Daniel G. A. Smith
                              RHF Reference
                        1 Threads,   1907 MiB Core
         ---------------------------------------------------------

  ==> Geometry <==

    Molecular point group: c2v
    Full point group: C2v

    Geometry (in Angstrom), charge = 0, multiplicity = 1:

       Center              X                  Y                   Z               Mass       
    ------------   -----------------  -----------------  -----------------  -----------------
         O            0.000000000000     0.000000000000    -0.075791843599    15.994914619570
         H            0.000000000000    -0.866811828967     0.601435779259     1.007825032230
         H            0.000000000000     0.866811828967     0.601435779259     1.007825032230

  Running in c2v symmetry.

  Rotational constants: A =     20.53324  B =     11.13094  C =      7.21807 [cm^-1]
  Rotational constants: A = 615570.98071  B = 333697.07813  C = 216392.23582 [MHz]
  Nuclear repulsion =    8.002366482173422

  Charge       = 0
  Multiplicity = 1
  Electrons    = 10
  Nalpha       = 5
  Nbeta        = 5

  ==> Algorithm <==

  SCF Algorithm Type is PK.
  DIIS enabled.
  MOM disabled.
  Fractional occupation disabled.
  Guess Type is SAD.
  Energy threshold   = 1.00e-08
  Density threshold  = 1.00e-14
  Integral threshold = 0.00e+00

  ==> Primary Basis <==

  Basis Set: CC-PVDZ
    Blend: CC-PVDZ
    Number of shells: 12
    Number of basis function: 24
    Number of Cartesian functions: 25
    Spherical Harmonics?: true
    Max angular momentum: 2

  ==> Pre-Iterations <==

   -------------------------------------------------------
    Irrep   Nso     Nmo     Nalpha   Nbeta   Ndocc  Nsocc
   -------------------------------------------------------
     A1        11      11       0       0       0       0
     A2         2       2       0       0       0       0
     B1         4       4       0       0       0       0
     B2         7       7       0       0       0       0
   -------------------------------------------------------
    Total      24      24       5       5       5       0
   -------------------------------------------------------

  ==> Integral Setup <==

  Using in-core PK algorithm.
   Calculation information:
      Number of atoms:                   3
      Number of AO shells:              12
      Number of primitives:             32
      Number of atomic orbitals:        25
      Number of basis functions:        24

      Integral cutoff                 1.00e-12
      Number of threads:                 1

  Performing in-core PK
  Using 90300 doubles for integral storage.
  We computed 3081 shell quartets total.
  Whereas there are 3081 unique shell quartets.

  ==> DiskJK: Disk-Based J/K Matrices <==

    J tasked:                  Yes
    K tasked:                  Yes
    wK tasked:                  No
    Memory [MiB]:             1430
    Schwarz Cutoff:          1E-12

    OpenMP threads:              1

  Minimum eigenvalue in the overlap matrix is 4.6103806577E-02.
  Using Symmetric Orthogonalization.

  SCF Guess: Superposition of Atomic Densities via on-the-fly atomic UHF.

  ==> Iterations <==

                        Total Energy        Delta E     RMS |[F,P]|

   @RHF iter SAD:   -75.31004289294360   -7.53100e+01   0.00000e+00 
   @RHF iter   1:   -75.90395951376647   -5.93917e-01   3.08693e-02 DIIS
   @RHF iter   2:   -75.96010342070514   -5.61439e-02   2.10075e-02 DIIS
   @RHF iter   3:   -75.98908681481095   -2.89834e-02   1.94783e-03 DIIS
   @RHF iter   4:   -75.98974344995683   -6.56635e-04   5.71596e-04 DIIS
   @RHF iter   5:   -75.98979390632410   -5.04564e-05   9.29249e-05 DIIS
   @RHF iter   6:   -75.98979573871553   -1.83239e-06   1.37839e-05 DIIS
   @RHF iter   7:   -75.98979578421597   -4.55004e-08   2.96676e-06 DIIS
   @RHF iter   8:   -75.98979578705953   -2.84356e-09   7.91700e-07 DIIS
   @RHF iter   9:   -75.98979578728520   -2.25668e-10   1.17014e-07 DIIS
   @RHF iter  10:   -75.98979578728876   -3.55271e-12   1.13922e-08 DIIS
   @RHF iter  11:   -75.98979578728881   -5.68434e-14   1.37670e-09 DIIS
   @RHF iter  12:   -75.98979578728884   -2.84217e-14   6.21997e-11 DIIS
   @RHF iter  13:   -75.98979578728878    5.68434e-14   1.07959e-11 DIIS
   @RHF iter  14:   -75.98979578728878    0.00000e+00   1.15565e-12 DIIS
   @RHF iter  15:   -75.98979578728883   -4.26326e-14   2.64814e-13 DIIS
   @RHF iter  16:   -75.98979578728883    0.00000e+00   7.73879e-14 DIIS
   @RHF iter  17:   -75.98979578728880    2.84217e-14   2.99656e-14 DIIS
   @RHF iter  18:   -75.98979578728877    2.84217e-14   5.74858e-15 DIIS
  Energy and wave function converged.


  ==> Post-Iterations <==

    Orbital Energies [Eh]
    ---------------------

    Doubly Occupied:                                                      

       1A1   -20.574752     2A1    -1.277566     1B2    -0.629911  
       3A1    -0.541684     1B1    -0.486545  

    Virtual:                                                              

       4A1     0.157621     2B2     0.229513     3B2     0.704679  
       5A1     0.744562     6A1     1.170810     2B1     1.186420  
       4B2     1.268027     1A2     1.450914     7A1     1.473927  
       3B1     1.658468     5B2     1.804244     8A1     1.891430  
       6B2     2.149116     9A1     2.200244     4B1     3.172600  
       2A2     3.209688    10A1     3.328097    11A1     3.721354  
       7B2     3.985472  

    Final Occupation by Irrep:
             A1    A2    B1    B2 
    DOCC [     3,    0,    1,    1 ]

  @RHF Final Energy:   -75.98979578728877

   => Energetics <=

    Nuclear Repulsion Energy =              8.0023664821734215
    One-Electron Energy =                -120.9634075636078450
    Two-Electron Energy =                  36.9712452941456320
    Total Energy =                        -75.9897957872887844

Computation Completed


Properties will be evaluated at   0.000000,   0.000000,   0.000000 [a0]

Properties computed using the SCF density matrix

  Nuclear Dipole Moment: [e a0]
     X:     0.0000      Y:     0.0000      Z:     1.1273

  Electronic Dipole Moment: [e a0]
     X:     0.0000      Y:     0.0000      Z:    -0.2709

  Dipole Moment: [e a0]
     X:     0.0000      Y:     0.0000      Z:     0.8564     Total:     0.8564

  Dipole Moment: [D]
     X:     0.0000      Y:     0.0000      Z:     2.1766     Total:     2.1766


*** tstop() called on penguin at Thu Jan 16 21:03:16 2020
Module time:
	user time   =       0.53 seconds =       0.01 minutes
	system time =       0.01 seconds =       0.00 minutes
	total time  =          0 seconds =       0.00 minutes
Total time:
	user time   =       0.53 seconds =       0.01 minutes
	system time =       0.01 seconds =       0.00 minutes
	total time  =          0 seconds =       0.00 minutes
 MINTS: Wrapper to libmints.
   by Justin Turney

   Calculation information:
      Number of threads:                 1
      Number of atoms:                   3
      Number of AO shells:              12
      Number of SO shells:               9
      Number of primitives:             32
      Number of atomic orbitals:        25
      Number of basis functions:        24

      Number of irreps:                  4
      Integral cutoff                 0.00e+00
      Number of functions per irrep: [  11    2    4    7 ]

 OEINTS: Overlap, kinetic, potential, dipole, and quadrupole integrals
         stored in file 35.

      Computing two-electron integrals...done
      Computed 11583 non-zero two-electron integrals.
        Stored in file 33.


*** tstart() called on penguin
*** at Thu Jan 16 21:03:16 2020


	Wfn Parameters:
	--------------------
	Wavefunction         = CCSD
	Number of irreps     = 4
	Number of MOs        = 24
	Number of active MOs = 24
	AO-Basis             = NONE
	Semicanonical        = false
	Reference            = RHF
	Print Level          = 1

	IRREP	# MOs	# FZDC	# DOCC	# SOCC	# VIRT	# FZVR
	-----	-----	------	------	------	------	------
	 A1	   11	    0	    3	    0	    8	    0
	 A2	   2	    0	    0	    0	    2	    0
	 B1	   4	    0	    1	    0	    3	    0
	 B2	   7	    0	    1	    0	    6	    0
	Transforming integrals...
	IWL integrals will be deleted.
	(OO|OO)...
	Presorting SO-basis two-electron integrals.
	Sorting File: SO Ints (nn|nn) nbuckets = 1
	Transforming the one-electron integrals and constructing Fock matrices
	Starting first half-transformation.
	Sorting half-transformed integrals.
	First half integral transformation complete.
	Starting second half-transformation.
	Two-electron integral transformation complete.
	(OO|OV)...
	Starting second half-transformation.
	Two-electron integral transformation complete.
	(OO|VV)...
	Starting second half-transformation.
	Two-electron integral transformation complete.
	(OV|OO)...
	Starting first half-transformation.
	Sorting half-transformed integrals.
	First half integral transformation complete.
	Starting second half-transformation.
	Two-electron integral transformation complete.
	(OV|OV)...
	Starting second half-transformation.
	Two-electron integral transformation complete.
	(OV|VV)...
	Starting second half-transformation.
	Two-electron integral transformation complete.
	(VV|OO)...
	Starting first half-transformation.
	Sorting half-transformed integrals.
	First half integral transformation complete.
	Starting second half-transformation.
	Two-electron integral transformation complete.
	(VV|OV)...
	Starting second half-transformation.
	Two-electron integral transformation complete.
	(VV|VV)...
	Starting second half-transformation.
	Two-electron integral transformation complete.
	Frozen core energy     =      0.00000000000000

	Size of irrep 0 of <ab|cd> integrals:      0.013 (MW) /      0.102 (MB)
	Size of irrep 1 of <ab|cd> integrals:      0.005 (MW) /      0.037 (MB)
	Size of irrep 2 of <ab|cd> integrals:      0.005 (MW) /      0.041 (MB)
	Size of irrep 3 of <ab|cd> integrals:      0.012 (MW) /      0.093 (MB)
	Total:                                     0.034 (MW) /      0.274 (MB)

	Size of irrep 0 of <ia|bc> integrals:      0.004 (MW) /      0.030 (MB)
	Size of irrep 1 of <ia|bc> integrals:      0.001 (MW) /      0.008 (MB)
	Size of irrep 2 of <ia|bc> integrals:      0.001 (MW) /      0.011 (MB)
	Size of irrep 3 of <ia|bc> integrals:      0.003 (MW) /      0.024 (MB)
	Total:                                     0.009 (MW) /      0.073 (MB)

	Size of irrep 0 of tijab amplitudes:       0.001 (MW) /      0.010 (MB)
	Size of irrep 1 of tijab amplitudes:       0.000 (MW) /      0.001 (MB)
	Size of irrep 2 of tijab amplitudes:       0.000 (MW) /      0.003 (MB)
	Size of irrep 3 of tijab amplitudes:       0.001 (MW) /      0.005 (MB)
	Total:                                     0.002 (MW) /      0.020 (MB)

	Nuclear Rep. energy          =      8.00236648217342
	SCF energy                   =    -75.98979578728877
	One-electron energy          =   -120.96340756360738
	Two-electron energy          =     36.97124529414525
	Reference energy             =    -75.98979578728870

*** tstop() called on penguin at Thu Jan 16 21:03:16 2020
Module time:
	user time   =       0.02 seconds =       0.00 minutes
	system time =       0.03 seconds =       0.00 minutes
	total time  =          0 seconds =       0.00 minutes
Total time:
	user time   =       0.58 seconds =       0.01 minutes
	system time =       0.04 seconds =       0.00 minutes
	total time  =          0 seconds =       0.00 minutes
            **************************
            *                        *
            *        CCENERGY        *
            *                        *
            **************************

    Nuclear Rep. energy (wfn)     =    8.002366482173422
    SCF energy          (wfn)     =  -75.989795787288770
    Reference energy    (file100) =  -75.989795787288699

    Input parameters:
    -----------------
    Wave function   =     CCSD
    Reference wfn   =     RHF
    Brueckner       =     No
    Memory (Mbytes) =     2000.0
    Maxiter         =     40
    R_Convergence   =     1.0e-07
    E_Convergence   =     1.0e-40
    Restart         =     Yes
    DIIS            =     Yes
    AO Basis        =     NONE
    ABCD            =     NEW
    Cache Level     =     2
    Cache Type      =     LOW
    Print Level     =     1
    Num. of threads =     1
    # Amps to Print =     10
    Print MP2 Amps? =     No
    Analyze T2 Amps =     No
    Print Pair Ener =     No
    Local CC        =     No
    SCS-MP2         =     False
    SCSN-MP2        =     False
    SCS-CCSD        =     False

MP2 correlation energy -0.2143476074775938
                Solving CC Amplitude Equations
                ------------------------------
  Iter             Energy              RMS        T1Diag      D1Diag    New D1Diag    D2Diag
  ----     ---------------------    ---------   ----------  ----------  ----------   --------
     0        -0.214347607477594    0.000e+00    0.000000    0.000000    0.000000    0.124314
     1        -0.217469137495297    3.390e-02    0.005571    0.011730    0.011730    0.132684
     2        -0.223003432778391    1.389e-02    0.006684    0.014643    0.014643    0.141151
     3        -0.223868687264341    4.488e-03    0.007607    0.017366    0.017366    0.143961
     4        -0.223893592928588    1.123e-03    0.007739    0.017975    0.017975    0.144369
     5        -0.223917830884783    4.231e-04    0.007829    0.018370    0.018370    0.144442
     6        -0.223910961127108    1.420e-04    0.007862    0.018519    0.018519    0.144403
     7        -0.223910510345797    3.178e-05    0.007871    0.018553    0.018553    0.144396
     8        -0.223910118042743    7.004e-06    0.007872    0.018558    0.018558    0.144395
     9        -0.223909988417228    1.950e-06    0.007872    0.018559    0.018559    0.144395
    10        -0.223910026430712    4.073e-07    0.007872    0.018560    0.018560    0.144395
    11        -0.223910018339034    8.237e-08    0.007872    0.018560    0.018560    0.144395
    12        -0.223910019334676    1.699e-08    0.007872    0.018560    0.018560    0.144395
    13        -0.223910018684313    4.353e-09    0.007872    0.018560    0.018560    0.144395
    14        -0.223910018700912    9.291e-10    0.007872    0.018560    0.018560    0.144395
    15        -0.223910018701247    2.545e-10    0.007872    0.018560    0.018560    0.144395
    16        -0.223910018701558    5.951e-11    0.007872    0.018560    0.018560    0.144395
    17        -0.223910018703313    1.752e-11    0.007872    0.018560    0.018560    0.144395
    18        -0.223910018703513    3.604e-12    0.007872    0.018560    0.018560    0.144395
    19        -0.223910018703571    8.400e-13    0.007872    0.018560    0.018560    0.144395
    20        -0.223910018703579    2.242e-13    0.007872    0.018560    0.018560    0.144395
    21        -0.223910018703576    5.195e-14    0.007872    0.018560    0.018560    0.144395
    22        -0.223910018703576    1.277e-14    0.007872    0.018560    0.018560    0.144395
    23        -0.223910018703575    3.577e-15    0.007872    0.018560    0.018560    0.144395
    24        -0.223910018703575    9.983e-16    0.007872    0.018560    0.018560    0.144395
    25        -0.223910018703575    2.888e-16    0.007872    0.018560    0.018560    0.144395
    26        -0.223910018703575    1.392e-16    0.007872    0.018560    0.018560    0.144395
    27        -0.223910018703575    7.335e-17    0.007872    0.018560    0.018560    0.144395
    28        -0.223910018703575    6.581e-17    0.007872    0.018560    0.018560    0.144395
    29        -0.223910018703575    4.752e-17    0.007872    0.018560    0.018560    0.144395
    30        -0.223910018703575    5.096e-17    0.007872    0.018560    0.018560    0.144395
    31        -0.223910018703575    3.719e-17    0.007872    0.018560    0.018560    0.144395

    Iterations converged.


    Largest TIA Amplitudes:
              2   0         0.0146737907
              4  17         0.0095433630
              4  15         0.0082759048
              2   5        -0.0061230964
              2   1        -0.0056628370
              1   2         0.0054839612
              2   4         0.0053420209
              4  13        -0.0053186013
              3  10        -0.0048186798
              3  11         0.0036602152

    Largest TIjAb Amplitudes:
      3   3  10  10        -0.0505765072
      4   4  13  13        -0.0473841541
      4   4  14  14        -0.0366415236
      2   2   2   2        -0.0345941270
      2   2   0   0        -0.0339272651
      4   4  13  14        -0.0297161683
      4   4  14  13        -0.0297161683
      4   4   1   1        -0.0295401012
      2   4   0  13         0.0289058353
      4   2  13   0         0.0289058353

    SCF energy       (wfn)                    =  -75.989795787288770
    Reference energy (file100)                =  -75.989795787288699

    Opposite-spin MP2 correlation energy      =   -0.161281003983130
    Same-spin MP2 correlation energy          =   -0.053066603494464
    MP2 correlation energy                    =   -0.214347607477594
      * MP2 total energy                      =  -76.204143394766291

    Opposite-spin CCSD correlation energy     =   -0.178173265526009
    Same-spin CCSD correlation energy         =   -0.045736753177566
    CCSD correlation energy                   =   -0.223910018703575
      * CCSD total energy                     =  -76.213705805992277


    Psi4 stopped on: Thursday, 16 January 2020 09:03PM
    Psi4 wall time for execution: 0:00:01.18

*** Psi4 exiting successfully. Buy a developer a beer!
