
    -----------------------------------------------------------------------
          Psi4: An Open-Source Ab Initio Electronic Structure Package
                               Psi4 1.3.2 release

                         Git: Rev {HEAD} ecbda83 


    R. M. Parrish, L. A. Burns, D. G. A. Smith, A. C. Simmonett,
    A. E. DePrince III, E. G. Hohenstein, U. Bozkaya, A. Yu. Sokolov,
    R. Di Remigio, R. M. Richard, J. F. Gonthier, A. M. James,
    H. R. McAlexander, A. Kumar, M. Saitow, X. Wang, B. P. Pritchard,
    P. Verma, H. F. Schaefer III, K. Patkowski, R. A. King, E. F. Valeev,
    F. A. Evangelista, J. M. Turney, T. D. Crawford, and C. D. Sherrill,
    J. Chem. Theory Comput. 13(7) pp 3185--3197 (2017).
    (doi: 10.1021/acs.jctc.7b00174)


                         Additional Contributions by
    P. Kraus, H. Kruse, M. H. Lechner, M. C. Schieber, R. A. Shaw,
    A. Alenaizan, R. Galvelis, Z. L. Glick, S. Lehtola, and J. P. Misiewicz

    -----------------------------------------------------------------------


    Psi4 started on: Tuesday, 21 January 2020 05:20PM

    Process ID: 10878
    Host:       davis-ws
    PSIDATADIR: /home/mmd01986/.conda/envs/p4env/share/psi4
    Memory:     500.0 MiB
    Threads:    6
    
  ==> Input File <==

--------------------------------------------------------------------------
memory 40 GB

molecule {
0 1
pubchem:butane
}

set basis cc-pvdz
set scf {
    d_convergence 14
}
set ccenergy {
    maxiter 40
    e_convergence 1E-40
}
energy('ccsd')
--------------------------------------------------------------------------

  Memory set to  37.253 GiB by Python driver.

*** tstart() called on davis-ws
*** at Tue Jan 21 17:20:50 2020

   => Loading Basis Set <=

    Name: CC-PVDZ
    Role: ORBITAL
    Keyword: BASIS
    atoms 1-4  entry C          line   138 file /home/mmd01986/.conda/envs/p4env/share/psi4/basis/cc-pvdz.gbs 
    atoms 5-14 entry H          line    22 file /home/mmd01986/.conda/envs/p4env/share/psi4/basis/cc-pvdz.gbs 


         ---------------------------------------------------------
                                   SCF
               by Justin Turney, Rob Parrish, Andy Simmonett
                          and Daniel G. A. Smith
                              RHF Reference
                        6 Threads,  38146 MiB Core
         ---------------------------------------------------------

  ==> Geometry <==

    Molecular point group: c1
    Full point group: C1

    Geometry (in Angstrom), charge = 0, multiplicity = 1:

       Center              X                  Y                   Z               Mass       
    ------------   -----------------  -----------------  -----------------  -----------------
         C           -0.563018926491     0.516006941153     0.007394998996    12.000000000000
         C            0.562981073509    -0.515893058847     0.007394998996    12.000000000000
         C           -1.929318926491    -0.150593058847    -0.006805001004    12.000000000000
         C            1.929381073509     0.150506941153    -0.006805001004    12.000000000000
         H           -0.472418926491     1.166606941153    -0.870305001004     1.007825032230
         H           -0.482518926491     1.155106941153     0.894294998996     1.007825032230
         H            0.482481073509    -1.155093058847     0.894294998996     1.007825032230
         H            0.472281073509    -1.166493058847    -0.870305001004     1.007825032230
         H           -2.054218926491    -0.770993058847    -0.900005001004     1.007825032230
         H           -2.065118926491    -0.785593058847     0.874494998996     1.007825032230
         H           -2.720318926491     0.606006941153    -0.005505001004     1.007825032230
         H            2.054181073509     0.770906941153    -0.900005001004     1.007825032230
         H            2.720181073509    -0.606193058847    -0.005605001004     1.007825032230
         H            2.065181073509     0.785406941153     0.874594998996     1.007825032230

  Running in c1 symmetry.

  Rotational constants: A =      0.77131  B =      0.12377  C =      0.11592 [cm^-1]
  Rotational constants: A =  23123.30565  B =   3710.46681  C =   3475.10740 [MHz]
  Nuclear repulsion =  131.165947906540509

  Charge       = 0
  Multiplicity = 1
  Electrons    = 34
  Nalpha       = 17
  Nbeta        = 17

  ==> Algorithm <==

  SCF Algorithm Type is PK.
  DIIS enabled.
  MOM disabled.
  Fractional occupation disabled.
  Guess Type is SAD.
  Energy threshold   = 1.00e-08
  Density threshold  = 1.00e-14
  Integral threshold = 0.00e+00

  ==> Primary Basis <==

  Basis Set: CC-PVDZ
    Blend: CC-PVDZ
    Number of shells: 54
    Number of basis function: 106
    Number of Cartesian functions: 110
    Spherical Harmonics?: true
    Max angular momentum: 2

  ==> Pre-Iterations <==

   -------------------------------------------------------
    Irrep   Nso     Nmo     Nalpha   Nbeta   Ndocc  Nsocc
   -------------------------------------------------------
     A        106     106       0       0       0       0
   -------------------------------------------------------
    Total     106     106      17      17      17       0
   -------------------------------------------------------

  ==> Integral Setup <==

  Using in-core PK algorithm.
   Calculation information:
      Number of atoms:                  14
      Number of AO shells:              54
      Number of primitives:            138
      Number of atomic orbitals:       110
      Number of basis functions:       106

      Integral cutoff                 1.00e-12
      Number of threads:                 6

  Performing in-core PK
  Using 32165912 doubles for integral storage.
  We computed 1228226 shell quartets total.
  Whereas there are 1103355 unique shell quartets.
    11.32 percent of shell quartets recomputed by reordering.

  ==> DiskJK: Disk-Based J/K Matrices <==

    J tasked:                  Yes
    K tasked:                  Yes
    wK tasked:                  No
    Memory [MiB]:            28610
    Schwarz Cutoff:          1E-12

    OpenMP threads:              6

  Minimum eigenvalue in the overlap matrix is 3.5919811463E-03.
  Using Symmetric Orthogonalization.

  SCF Guess: Superposition of Atomic Densities via on-the-fly atomic UHF.

  ==> Iterations <==

                        Total Energy        Delta E     RMS |[F,P]|

   @RHF iter SAD:  -156.69860829900884   -1.56699e+02   0.00000e+00 
   @RHF iter   1:  -157.16579731654551   -4.67189e-01   4.31288e-03 DIIS
   @RHF iter   2:  -157.28620969955873   -1.20412e-01   1.87730e-03 DIIS
   @RHF iter   3:  -157.30761275144482   -2.14031e-02   3.82847e-04 DIIS
   @RHF iter   4:  -157.30930562236031   -1.69287e-03   7.28881e-05 DIIS
   @RHF iter   5:  -157.30934710631055   -4.14840e-05   1.87789e-05 DIIS
   @RHF iter   6:  -157.30935047467503   -3.36836e-06   1.98101e-06 DIIS
   @RHF iter   7:  -157.30935053043865   -5.57636e-08   3.98895e-07 DIIS
   @RHF iter   8:  -157.30935053284094   -2.40229e-09   9.59689e-08 DIIS
   @RHF iter   9:  -157.30935053298936   -1.48418e-10   1.83450e-08 DIIS
   @RHF iter  10:  -157.30935053299433   -4.97380e-12   3.29323e-09 DIIS
   @RHF iter  11:  -157.30935053299464   -3.12639e-13   5.40802e-10 DIIS
   @RHF iter  12:  -157.30935053299453    1.13687e-13   1.33163e-10 DIIS
   @RHF iter  13:  -157.30935053299453    0.00000e+00   2.73670e-11 DIIS
   @RHF iter  14:  -157.30935053299439    1.42109e-13   4.84954e-12 DIIS
   @RHF iter  15:  -157.30935053299467   -2.84217e-13   1.47021e-12 DIIS
   @RHF iter  16:  -157.30935053299444    2.27374e-13   3.68750e-13 DIIS
   @RHF iter  17:  -157.30935053299447   -2.84217e-14   7.13422e-14 DIIS
   @RHF iter  18:  -157.30935053299447    0.00000e+00   2.25767e-14 DIIS
   @RHF iter  19:  -157.30935053299442    5.68434e-14   9.76107e-15 DIIS
  Energy and wave function converged.


  ==> Post-Iterations <==

    Orbital Energies [Eh]
    ---------------------

    Doubly Occupied:                                                      

       1A    -11.219046     2A    -11.218449     3A    -11.215163  
       4A    -11.215153     5A     -1.072520     6A     -0.981185  
       7A     -0.856609     8A     -0.786538     9A     -0.639111  
      10A     -0.584738    11A     -0.571745    12A     -0.566944  
      13A     -0.512354    14A     -0.492546    15A     -0.468967  
      16A     -0.462426    17A     -0.450420  

    Virtual:                                                              

      18A      0.183963    19A      0.204788    20A      0.221066  
      21A      0.225561    22A      0.266603    23A      0.276651  
      24A      0.279884    25A      0.291717    26A      0.298509  
      27A      0.308464    28A      0.387773    29A      0.393549  
      30A      0.424578    31A      0.587430    32A      0.591406  
      33A      0.593791    34A      0.612306    35A      0.638616  
      36A      0.690626    37A      0.713197    38A      0.837108  
      39A      0.866728    40A      0.884417    41A      0.884886  
      42A      0.891197    43A      0.895572    44A      0.901965  
      45A      0.911283    46A      0.912121    47A      0.918017  
      48A      0.933249    49A      0.941794    50A      0.950659  
      51A      0.964063    52A      0.976275    53A      1.125181  
      54A      1.137295    55A      1.180365    56A      1.328251  
      57A      1.463658    58A      1.465771    59A      1.479513  
      60A      1.480217    61A      1.556336    62A      1.564451  
      63A      1.692945    64A      1.693315    65A      1.720797  
      66A      1.741771    67A      1.854954    68A      1.891450  
      69A      1.899182    70A      1.902036    71A      1.906826  
      72A      1.917855    73A      1.934047    74A      1.942097  
      75A      1.974404    76A      1.989220    77A      1.990313  
      78A      2.003745    79A      2.011083    80A      2.037871  
      81A      2.039715    82A      2.068406    83A      2.161691  
      84A      2.233683    85A      2.241244    86A      2.250114  
      87A      2.288522    88A      2.392571    89A      2.397914  
      90A      2.462030    91A      2.510679    92A      2.526816  
      93A      2.550144    94A      2.617636    95A      2.630118  
      96A      2.649176    97A      2.757408    98A      2.766050  
      99A      2.774958   100A      2.798086   101A      2.860009  
     102A      2.871181   103A      2.955966   104A      2.961407  
     105A      3.073082   106A      3.075670  

    Final Occupation by Irrep:
              A 
    DOCC [    17 ]

  @RHF Final Energy:  -157.30935053299442

   => Energetics <=

    Nuclear Repulsion Energy =            131.1659479065405094
    One-Electron Energy =                -470.3227675561407750
    Two-Electron Energy =                 181.8474691166058506
    Total Energy =                       -157.3093505329944151

Computation Completed


Properties will be evaluated at   0.000000,   0.000000,   0.000000 [a0]

Properties computed using the SCF density matrix

  Nuclear Dipole Moment: [e a0]
     X:    -0.0003      Y:    -0.0003      Z:    -0.0132

  Electronic Dipole Moment: [e a0]
     X:     0.0003      Y:     0.0003      Z:     0.0136

  Dipole Moment: [e a0]
     X:     0.0000      Y:    -0.0000      Z:     0.0004     Total:     0.0004

  Dipole Moment: [D]
     X:     0.0000      Y:    -0.0000      Z:     0.0010     Total:     0.0010


*** tstop() called on davis-ws at Tue Jan 21 17:20:52 2020
Module time:
	user time   =      10.33 seconds =       0.17 minutes
	system time =       0.18 seconds =       0.00 minutes
	total time  =          2 seconds =       0.03 minutes
Total time:
	user time   =      10.33 seconds =       0.17 minutes
	system time =       0.18 seconds =       0.00 minutes
	total time  =          2 seconds =       0.03 minutes
 MINTS: Wrapper to libmints.
   by Justin Turney

   Calculation information:
      Number of threads:                 6
      Number of atoms:                  14
      Number of AO shells:              54
      Number of SO shells:              54
      Number of primitives:            138
      Number of atomic orbitals:       110
      Number of basis functions:       106

      Number of irreps:                  1
      Integral cutoff                 0.00e+00
      Number of functions per irrep: [ 106 ]

 OEINTS: Overlap, kinetic, potential, dipole, and quadrupole integrals
         stored in file 35.

      Computing two-electron integrals...done
      Computed 16063544 non-zero two-electron integrals.
        Stored in file 33.


*** tstart() called on davis-ws
*** at Tue Jan 21 17:20:54 2020


	Wfn Parameters:
	--------------------
	Wavefunction         = CCSD
	Number of irreps     = 1
	Number of MOs        = 106
	Number of active MOs = 106
	AO-Basis             = NONE
	Semicanonical        = false
	Reference            = RHF
	Print Level          = 1

	IRREP	# MOs	# FZDC	# DOCC	# SOCC	# VIRT	# FZVR
	-----	-----	------	------	------	------	------
	 A	   106	    0	    17	    0	    89	    0
	Transforming integrals...
	IWL integrals will be deleted.
	(OO|OO)...
	Presorting SO-basis two-electron integrals.
	Sorting File: SO Ints (nn|nn) nbuckets = 1
	Transforming the one-electron integrals and constructing Fock matrices
	Starting first half-transformation.
	Sorting half-transformed integrals.
	First half integral transformation complete.
	Starting second half-transformation.
	Two-electron integral transformation complete.
	(OO|OV)...
	Starting second half-transformation.
	Two-electron integral transformation complete.
	(OO|VV)...
	Starting second half-transformation.
	Two-electron integral transformation complete.
	(OV|OO)...
	Starting first half-transformation.
	Sorting half-transformed integrals.
	First half integral transformation complete.
	Starting second half-transformation.
	Two-electron integral transformation complete.
	(OV|OV)...
	Starting second half-transformation.
	Two-electron integral transformation complete.
	(OV|VV)...
	Starting second half-transformation.
	Two-electron integral transformation complete.
	(VV|OO)...
	Starting first half-transformation.
	Sorting half-transformed integrals.
	First half integral transformation complete.
	Starting second half-transformation.
	Two-electron integral transformation complete.
	(VV|OV)...
	Starting second half-transformation.
	Two-electron integral transformation complete.
	(VV|VV)...
	Starting second half-transformation.
	Two-electron integral transformation complete.
	Frozen core energy     =      0.00000000000000

	Size of irrep 0 of <ab|cd> integrals:     62.742 (MW) /    501.938 (MB)
	Total:                                    62.742 (MW) /    501.938 (MB)

	Size of irrep 0 of <ia|bc> integrals:     11.984 (MW) /     95.876 (MB)
	Total:                                    11.984 (MW) /     95.876 (MB)

	Size of irrep 0 of tijab amplitudes:       2.289 (MW) /     18.313 (MB)
	Total:                                     2.289 (MW) /     18.313 (MB)

	Nuclear Rep. energy          =    131.16594790654051
	SCF energy                   =   -157.30935053299442
	One-electron energy          =   -470.32276755613663
	Two-electron energy          =    181.84746911659792
	Reference energy             =   -157.30935053299822

*** tstop() called on davis-ws at Tue Jan 21 17:21:02 2020
Module time:
	user time   =      20.17 seconds =       0.34 minutes
	system time =       4.05 seconds =       0.07 minutes
	total time  =          8 seconds =       0.13 minutes
Total time:
	user time   =      34.36 seconds =       0.57 minutes
	system time =       4.44 seconds =       0.07 minutes
	total time  =         12 seconds =       0.20 minutes
            **************************
            *                        *
            *        CCENERGY        *
            *                        *
            **************************

    Nuclear Rep. energy (wfn)     =  131.165947906540509
    SCF energy          (wfn)     = -157.309350532994415
    Reference energy    (file100) = -157.309350532998224

    Input parameters:
    -----------------
    Wave function   =     CCSD
    Reference wfn   =     RHF
    Brueckner       =     No
    Memory (Mbytes) =     40000.0
    Maxiter         =     40
    R_Convergence   =     1.0e-07
    E_Convergence   =     1.0e-40
    Restart         =     Yes
    DIIS            =     Yes
    AO Basis        =     NONE
    ABCD            =     NEW
    Cache Level     =     2
    Cache Type      =     LOW
    Print Level     =     1
    Num. of threads =     6
    # Amps to Print =     10
    Print MP2 Amps? =     No
    Analyze T2 Amps =     No
    Print Pair Ener =     No
    Local CC        =     No
    SCS-MP2         =     False
    SCSN-MP2        =     False
    SCS-CCSD        =     False

MP2 correlation energy -0.5993135710089800
                Solving CC Amplitude Equations
                ------------------------------
  Iter             Energy              RMS        T1Diag      D1Diag    New D1Diag    D2Diag
  ----     ---------------------    ---------   ----------  ----------  ----------   --------
     0        -0.599313571008980    0.000e+00    0.000000    0.000000    0.000000    0.128462
     1        -0.642335796904036    6.730e-02    0.004671    0.010595    0.010595    0.135745
     2        -0.659832187154378    2.099e-02    0.005364    0.011626    0.011626    0.141466
     3        -0.660991545179409    5.046e-03    0.005642    0.012412    0.012412    0.142245
     4        -0.661093581328733    1.495e-03    0.005643    0.012353    0.012353    0.142511
     5        -0.661126057874638    3.657e-04    0.005643    0.012369    0.012369    0.142552
     6        -0.661127201650870    1.052e-04    0.005643    0.012368    0.012368    0.142553
     7        -0.661127639633411    2.364e-05    0.005643    0.012368    0.012368    0.142554
     8        -0.661128046651295    6.789e-06    0.005643    0.012368    0.012368    0.142554
     9        -0.661128021355200    1.757e-06    0.005643    0.012368    0.012368    0.142554
    10        -0.661127979180204    5.356e-07    0.005643    0.012368    0.012368    0.142554
    11        -0.661127985900701    1.781e-07    0.005643    0.012368    0.012368    0.142554
    12        -0.661127983918153    4.693e-08    0.005643    0.012368    0.012368    0.142554
    13        -0.661127985111173    1.470e-08    0.005643    0.012368    0.012368    0.142554
    14        -0.661127985549295    4.266e-09    0.005643    0.012368    0.012368    0.142554
    15        -0.661127985593468    1.328e-09    0.005643    0.012368    0.012368    0.142554
    16        -0.661127985594696    4.449e-10    0.005643    0.012368    0.012368    0.142554
    17        -0.661127985590240    1.293e-10    0.005643    0.012368    0.012368    0.142554
    18        -0.661127985586387    4.433e-11    0.005643    0.012368    0.012368    0.142554
    19        -0.661127985585473    1.405e-11    0.005643    0.012368    0.012368    0.142554
    20        -0.661127985585418    4.293e-12    0.005643    0.012368    0.012368    0.142554
    21        -0.661127985585413    1.464e-12    0.005643    0.012368    0.012368    0.142554
    22        -0.661127985585411    4.683e-13    0.005643    0.012368    0.012368    0.142554
    23        -0.661127985585412    1.593e-13    0.005643    0.012368    0.012368    0.142554
    24        -0.661127985585412    5.229e-14    0.005643    0.012368    0.012368    0.142554
    25        -0.661127985585412    1.816e-14    0.005643    0.012368    0.012368    0.142554
    26        -0.661127985585412    6.445e-15    0.005643    0.012368    0.012368    0.142554
    27        -0.661127985585412    2.222e-15    0.005643    0.012368    0.012368    0.142554
    28        -0.661127985585411    8.590e-16    0.005643    0.012368    0.012368    0.142554
    29        -0.661127985585412    5.677e-16    0.005643    0.012368    0.012368    0.142554
    30        -0.661127985585412    4.106e-16    0.005643    0.012368    0.012368    0.142554
    31        -0.661127985585412    3.765e-16    0.005643    0.012368    0.012368    0.142554

    Iterations converged.


    Largest TIA Amplitudes:
              8  16         0.0079328662
             10  15        -0.0075893382
             16  49         0.0068271759
             11  14        -0.0061043511
              9  17        -0.0055612265
             13  26         0.0050114184
             11  27        -0.0049930424
             12  24         0.0048943294
             10  55        -0.0046955835
              9  61         0.0045486389

    Largest TIjAb Amplitudes:
     15  15  16  16        -0.0185956472
     16  16  12  12        -0.0176914905
     16  16  15  15        -0.0146664636
     16  16  17  17        -0.0133579571
     13  13  14  14        -0.0130401368
     14  14  10  10        -0.0114084036
     15  15   2   2        -0.0112899300
     16  16  11  11        -0.0112664610
     10  10  15  15        -0.0112456780
     14  14  16  16        -0.0112404644

    SCF energy       (wfn)                    = -157.309350532994415
    Reference energy (file100)                = -157.309350532998224

    Opposite-spin MP2 correlation energy      =   -0.466104807090243
    Same-spin MP2 correlation energy          =   -0.133208763918737
    MP2 correlation energy                    =   -0.599313571008980
      * MP2 total energy                      = -157.908664104007215

    Opposite-spin CCSD correlation energy     =   -0.535710047934147
    Same-spin CCSD correlation energy         =   -0.125417937651265
    CCSD correlation energy                   =   -0.661127985585412
      * CCSD total energy                     = -157.970478518583633


    Psi4 stopped on: Tuesday, 21 January 2020 05:22PM
    Psi4 wall time for execution: 0:01:26.47

*** Psi4 exiting successfully. Buy a developer a beer!
