
Host: penguin

Timers On : Sun Jan 12 20:36:33 2020
Timers Off: Sun Jan 12 20:36:42 2020

Wall Time:        8.91 seconds

                                                       Time (seconds)
Module                                       User      System        Wall        Calls
Total PK formation time             :      0.100u      0.000s      0.059w      1 calls
HF: Form core H                     :      0.000u      0.000s      0.001w      1 calls
HF: Form S/X                        :      0.000u      0.000s      0.001w      1 calls
HF: Guess                           :      0.333u      0.000s      0.205w      1 calls
SAD Guess                           :      0.317u      0.000s      0.192w      1 calls
HF: Form G                          :      0.000u      0.000s      0.002w     13 calls
JK: D                               :      0.000u      0.000s      0.000w     13 calls
JK: USO2AO                          :      0.000u      0.000s      0.000w     13 calls
JK: JK                              :      0.000u      0.000s      0.001w     13 calls
PK computes JK                      :      0.000u      0.000s      0.001w     13 calls
JK: AO2USO                          :      0.000u      0.000s      0.000w     13 calls
HF: Form F                          :      0.000u      0.000s      0.000w     13 calls
HF: Form D                          :      0.000u      0.000s      0.000w     13 calls
HF: DIIS                            :      0.033u      0.000s      0.009w     12 calls
DIISManager::add_entry              :      0.000u      0.000s      0.001w     12 calls
DIISManager::extrapolate            :      0.000u      0.000s      0.002w     12 calls
bMatrix setup                       :      0.000u      0.000s      0.001w     12 calls
bMatrix pseudoinverse               :      0.000u      0.000s      0.000w     12 calls
New vector                          :      0.000u      0.000s      0.000w     12 calls
HF: Form C                          :      0.000u      0.000s      0.001w     12 calls

--------------------------------------------------------------------------------------
Total PK formation time             :      0.100u      0.000s      0.059w      1 calls
HF: Form core H                     :      0.000u      0.000s      0.001w      1 calls
HF: Form S/X                        :      0.000u      0.000s      0.001w      1 calls
HF: Guess                           :      0.333u      0.000s      0.205w      1 calls
| SAD Guess                         :      0.317u      0.000s      0.192w      1 calls
HF: Form G                          :      0.000u      0.000s      0.002w     13 calls
| JK: D                             :      0.000u      0.000s      0.000w     13 calls
| JK: USO2AO                        :      0.000u      0.000s      0.000w     13 calls
| JK: JK                            :      0.000u      0.000s      0.001w     13 calls
| | PK computes JK                  :      0.000u      0.000s      0.001w     13 calls
| JK: AO2USO                        :      0.000u      0.000s      0.000w     13 calls
HF: Form F                          :      0.000u      0.000s      0.000w     13 calls
HF: Form D                          :      0.000u      0.000s      0.000w     13 calls
HF: DIIS                            :      0.033u      0.000s      0.009w     12 calls
| DIISManager::add_entry            :      0.000u      0.000s      0.001w     12 calls
| DIISManager::extrapolate          :      0.000u      0.000s      0.002w     12 calls
| | bMatrix setup                   :      0.000u      0.000s      0.001w     12 calls
| | bMatrix pseudoinverse           :      0.000u      0.000s      0.000w     12 calls
| | New vector                      :      0.000u      0.000s      0.000w     12 calls
HF: Form C                          :      0.000u      0.000s      0.001w     12 calls

**************************************************************************************

Host: penguin

Timers On : Sun Jan 12 20:36:58 2020
Timers Off: Sun Jan 12 20:37:29 2020

Wall Time:       31.00 seconds

                                                       Time (seconds)
Module                                       User      System        Wall        Calls
Total PK formation time             :      0.100u      0.000s      0.060w      1 calls
HF: Form core H                     :      0.000u      0.017s      0.001w      1 calls
HF: Form S/X                        :      0.000u      0.000s      0.000w      1 calls
HF: Guess                           :      0.333u      0.000s      0.202w      1 calls
SAD Guess                           :      0.317u      0.000s      0.189w      1 calls
HF: Form G                          :      0.017u      0.000s      0.002w     13 calls
JK: D                               :      0.000u      0.000s      0.000w     13 calls
JK: USO2AO                          :      0.000u      0.000s      0.000w     13 calls
JK: JK                              :      0.017u      0.000s      0.002w     13 calls
PK computes JK                      :      0.017u      0.000s      0.001w     13 calls
JK: AO2USO                          :      0.000u      0.000s      0.000w     13 calls
HF: Form F                          :      0.000u      0.000s      0.000w     13 calls
HF: Form D                          :      0.000u      0.000s      0.000w     13 calls
HF: DIIS                            :      0.017u      0.000s      0.009w     12 calls
DIISManager::add_entry              :      0.000u      0.000s      0.001w     12 calls
DIISManager::extrapolate            :      0.000u      0.000s      0.002w     12 calls
bMatrix setup                       :      0.000u      0.000s      0.001w     12 calls
bMatrix pseudoinverse               :      0.000u      0.000s      0.001w     12 calls
New vector                          :      0.000u      0.000s      0.000w     12 calls
HF: Form C                          :      0.000u      0.000s      0.001w     12 calls

--------------------------------------------------------------------------------------
Total PK formation time             :      0.100u      0.000s      0.060w      1 calls
HF: Form core H                     :      0.000u      0.017s      0.001w      1 calls
HF: Form S/X                        :      0.000u      0.000s      0.000w      1 calls
HF: Guess                           :      0.333u      0.000s      0.202w      1 calls
| SAD Guess                         :      0.317u      0.000s      0.189w      1 calls
HF: Form G                          :      0.017u      0.000s      0.002w     13 calls
| JK: D                             :      0.000u      0.000s      0.000w     13 calls
| JK: USO2AO                        :      0.000u      0.000s      0.000w     13 calls
| JK: JK                            :      0.017u      0.000s      0.002w     13 calls
| | PK computes JK                  :      0.017u      0.000s      0.001w     13 calls
| JK: AO2USO                        :      0.000u      0.000s      0.000w     13 calls
HF: Form F                          :      0.000u      0.000s      0.000w     13 calls
HF: Form D                          :      0.000u      0.000s      0.000w     13 calls
HF: DIIS                            :      0.017u      0.000s      0.009w     12 calls
| DIISManager::add_entry            :      0.000u      0.000s      0.001w     12 calls
| DIISManager::extrapolate          :      0.000u      0.000s      0.002w     12 calls
| | bMatrix setup                   :      0.000u      0.000s      0.001w     12 calls
| | bMatrix pseudoinverse           :      0.000u      0.000s      0.001w     12 calls
| | New vector                      :      0.000u      0.000s      0.000w     12 calls
HF: Form C                          :      0.000u      0.000s      0.001w     12 calls

**************************************************************************************

Host: penguin

Timers On : Sun Jan 12 20:38:36 2020
Timers Off: Sun Jan 12 20:39:07 2020

Wall Time:       31.32 seconds

                                                       Time (seconds)
Module                                       User      System        Wall        Calls
Total PK formation time             :      0.100u      0.000s      0.058w      1 calls
HF: Form core H                     :      0.000u      0.017s      0.001w      1 calls
HF: Form S/X                        :      0.000u      0.000s      0.000w      1 calls
HF: Guess                           :      0.317u      0.000s      0.191w      1 calls
SAD Guess                           :      0.300u      0.000s      0.179w      1 calls
HF: Form G                          :      0.000u      0.000s      0.002w     13 calls
JK: D                               :      0.000u      0.000s      0.000w     13 calls
JK: USO2AO                          :      0.000u      0.000s      0.000w     13 calls
JK: JK                              :      0.000u      0.000s      0.001w     13 calls
PK computes JK                      :      0.000u      0.000s      0.001w     13 calls
JK: AO2USO                          :      0.000u      0.000s      0.000w     13 calls
HF: Form F                          :      0.000u      0.000s      0.000w     13 calls
HF: Form D                          :      0.000u      0.000s      0.000w     13 calls
HF: DIIS                            :      0.017u      0.000s      0.009w     12 calls
DIISManager::add_entry              :      0.000u      0.000s      0.001w     12 calls
DIISManager::extrapolate            :      0.017u      0.000s      0.002w     12 calls
bMatrix setup                       :      0.000u      0.000s      0.001w     12 calls
bMatrix pseudoinverse               :      0.000u      0.000s      0.001w     12 calls
New vector                          :      0.017u      0.000s      0.000w     12 calls
HF: Form C                          :      0.000u      0.000s      0.001w     12 calls

--------------------------------------------------------------------------------------
Total PK formation time             :      0.100u      0.000s      0.058w      1 calls
HF: Form core H                     :      0.000u      0.017s      0.001w      1 calls
HF: Form S/X                        :      0.000u      0.000s      0.000w      1 calls
HF: Guess                           :      0.317u      0.000s      0.191w      1 calls
| SAD Guess                         :      0.300u      0.000s      0.179w      1 calls
HF: Form G                          :      0.000u      0.000s      0.002w     13 calls
| JK: D                             :      0.000u      0.000s      0.000w     13 calls
| JK: USO2AO                        :      0.000u      0.000s      0.000w     13 calls
| JK: JK                            :      0.000u      0.000s      0.001w     13 calls
| | PK computes JK                  :      0.000u      0.000s      0.001w     13 calls
| JK: AO2USO                        :      0.000u      0.000s      0.000w     13 calls
HF: Form F                          :      0.000u      0.000s      0.000w     13 calls
HF: Form D                          :      0.000u      0.000s      0.000w     13 calls
HF: DIIS                            :      0.017u      0.000s      0.009w     12 calls
| DIISManager::add_entry            :      0.000u      0.000s      0.001w     12 calls
| DIISManager::extrapolate          :      0.017u      0.000s      0.002w     12 calls
| | bMatrix setup                   :      0.000u      0.000s      0.001w     12 calls
| | bMatrix pseudoinverse           :      0.000u      0.000s      0.001w     12 calls
| | New vector                      :      0.017u      0.000s      0.000w     12 calls
HF: Form C                          :      0.000u      0.000s      0.001w     12 calls

**************************************************************************************

Host: penguin

Timers On : Sun Jan 12 20:44:22 2020
Timers Off: Sun Jan 12 20:44:54 2020

Wall Time:       31.54 seconds

                                                       Time (seconds)
Module                                       User      System        Wall        Calls
Total PK formation time             :      0.117u      0.000s      0.072w      1 calls
HF: Form core H                     :      0.000u      0.000s      0.001w      1 calls
HF: Form S/X                        :      0.000u      0.000s      0.003w      1 calls
HF: Guess                           :      0.383u      0.000s      0.231w      1 calls
SAD Guess                           :      0.350u      0.000s      0.216w      1 calls
HF: Form G                          :      0.000u      0.000s      0.002w     13 calls
JK: D                               :      0.000u      0.000s      0.000w     13 calls
JK: USO2AO                          :      0.000u      0.000s      0.000w     13 calls
JK: JK                              :      0.000u      0.000s      0.002w     13 calls
PK computes JK                      :      0.000u      0.000s      0.002w     13 calls
JK: AO2USO                          :      0.000u      0.000s      0.000w     13 calls
HF: Form F                          :      0.000u      0.000s      0.000w     13 calls
HF: Form D                          :      0.000u      0.000s      0.000w     13 calls
HF: DIIS                            :      0.017u      0.017s      0.011w     12 calls
DIISManager::add_entry              :      0.000u      0.000s      0.001w     12 calls
DIISManager::extrapolate            :      0.000u      0.000s      0.002w     12 calls
bMatrix setup                       :      0.000u      0.000s      0.001w     12 calls
bMatrix pseudoinverse               :      0.000u      0.000s      0.001w     12 calls
New vector                          :      0.000u      0.000s      0.000w     12 calls
HF: Form C                          :      0.000u      0.000s      0.001w     12 calls

--------------------------------------------------------------------------------------
Total PK formation time             :      0.117u      0.000s      0.072w      1 calls
HF: Form core H                     :      0.000u      0.000s      0.001w      1 calls
HF: Form S/X                        :      0.000u      0.000s      0.003w      1 calls
HF: Guess                           :      0.383u      0.000s      0.231w      1 calls
| SAD Guess                         :      0.350u      0.000s      0.216w      1 calls
HF: Form G                          :      0.000u      0.000s      0.002w     13 calls
| JK: D                             :      0.000u      0.000s      0.000w     13 calls
| JK: USO2AO                        :      0.000u      0.000s      0.000w     13 calls
| JK: JK                            :      0.000u      0.000s      0.002w     13 calls
| | PK computes JK                  :      0.000u      0.000s      0.002w     13 calls
| JK: AO2USO                        :      0.000u      0.000s      0.000w     13 calls
HF: Form F                          :      0.000u      0.000s      0.000w     13 calls
HF: Form D                          :      0.000u      0.000s      0.000w     13 calls
HF: DIIS                            :      0.017u      0.017s      0.011w     12 calls
| DIISManager::add_entry            :      0.000u      0.000s      0.001w     12 calls
| DIISManager::extrapolate          :      0.000u      0.000s      0.002w     12 calls
| | bMatrix setup                   :      0.000u      0.000s      0.001w     12 calls
| | bMatrix pseudoinverse           :      0.000u      0.000s      0.001w     12 calls
| | New vector                      :      0.000u      0.000s      0.000w     12 calls
HF: Form C                          :      0.000u      0.000s      0.001w     12 calls

**************************************************************************************

Host: penguin

Timers On : Sun Jan 12 20:45:57 2020
Timers Off: Sun Jan 12 20:46:34 2020

Wall Time:       36.69 seconds

                                                       Time (seconds)
Module                                       User      System        Wall        Calls
Total PK formation time             :      0.150u      0.000s      0.087w      1 calls
HF: Form core H                     :      0.000u      0.000s      0.006w      1 calls
HF: Form S/X                        :      0.000u      0.000s      0.000w      1 calls
HF: Guess                           :      0.600u      0.017s      0.370w      1 calls
SAD Guess                           :      0.567u      0.017s      0.354w      1 calls
HF: Form G                          :      0.000u      0.000s      0.003w     13 calls
JK: D                               :      0.000u      0.000s      0.000w     13 calls
JK: USO2AO                          :      0.000u      0.000s      0.000w     13 calls
JK: JK                              :      0.000u      0.000s      0.002w     13 calls
PK computes JK                      :      0.000u      0.000s      0.002w     13 calls
JK: AO2USO                          :      0.000u      0.000s      0.000w     13 calls
HF: Form F                          :      0.000u      0.000s      0.000w     13 calls
HF: Form D                          :      0.000u      0.000s      0.000w     13 calls
HF: DIIS                            :      0.017u      0.000s      0.014w     12 calls
DIISManager::add_entry              :      0.017u      0.000s      0.002w     12 calls
DIISManager::extrapolate            :      0.000u      0.000s      0.003w     12 calls
bMatrix setup                       :      0.000u      0.000s      0.002w     12 calls
bMatrix pseudoinverse               :      0.000u      0.000s      0.001w     12 calls
New vector                          :      0.000u      0.000s      0.001w     12 calls
HF: Form C                          :      0.017u      0.000s      0.002w     12 calls

--------------------------------------------------------------------------------------
Total PK formation time             :      0.150u      0.000s      0.087w      1 calls
HF: Form core H                     :      0.000u      0.000s      0.006w      1 calls
HF: Form S/X                        :      0.000u      0.000s      0.000w      1 calls
HF: Guess                           :      0.600u      0.017s      0.370w      1 calls
| SAD Guess                         :      0.567u      0.017s      0.354w      1 calls
HF: Form G                          :      0.000u      0.000s      0.003w     13 calls
| JK: D                             :      0.000u      0.000s      0.000w     13 calls
| JK: USO2AO                        :      0.000u      0.000s      0.000w     13 calls
| JK: JK                            :      0.000u      0.000s      0.002w     13 calls
| | PK computes JK                  :      0.000u      0.000s      0.002w     13 calls
| JK: AO2USO                        :      0.000u      0.000s      0.000w     13 calls
HF: Form F                          :      0.000u      0.000s      0.000w     13 calls
HF: Form D                          :      0.000u      0.000s      0.000w     13 calls
HF: DIIS                            :      0.017u      0.000s      0.014w     12 calls
| DIISManager::add_entry            :      0.017u      0.000s      0.002w     12 calls
| DIISManager::extrapolate          :      0.000u      0.000s      0.003w     12 calls
| | bMatrix setup                   :      0.000u      0.000s      0.002w     12 calls
| | bMatrix pseudoinverse           :      0.000u      0.000s      0.001w     12 calls
| | New vector                      :      0.000u      0.000s      0.001w     12 calls
HF: Form C                          :      0.017u      0.000s      0.002w     12 calls

**************************************************************************************

Host: penguin

Timers On : Sun Jan 12 20:50:18 2020
Timers Off: Sun Jan 12 20:50:52 2020

Wall Time:       33.92 seconds

                                                       Time (seconds)
Module                                       User      System        Wall        Calls
Total PK formation time             :      0.100u      0.000s      0.066w      1 calls
HF: Form core H                     :      0.000u      0.000s      0.001w      1 calls
HF: Form S/X                        :      0.000u      0.000s      0.004w      1 calls
HF: Guess                           :      0.383u      0.000s      0.224w      1 calls
SAD Guess                           :      0.350u      0.000s      0.210w      1 calls
HF: Form G                          :      0.000u      0.000s      0.003w     13 calls
JK: D                               :      0.000u      0.000s      0.000w     13 calls
JK: USO2AO                          :      0.000u      0.000s      0.000w     13 calls
JK: JK                              :      0.000u      0.000s      0.002w     13 calls
PK computes JK                      :      0.000u      0.000s      0.002w     13 calls
JK: AO2USO                          :      0.000u      0.000s      0.000w     13 calls
HF: Form F                          :      0.000u      0.000s      0.000w     13 calls
HF: Form D                          :      0.000u      0.000s      0.000w     13 calls
HF: DIIS                            :      0.017u      0.017s      0.009w     12 calls
DIISManager::add_entry              :      0.000u      0.017s      0.001w     12 calls
DIISManager::extrapolate            :      0.017u      0.000s      0.002w     12 calls
bMatrix setup                       :      0.000u      0.000s      0.001w     12 calls
bMatrix pseudoinverse               :      0.017u      0.000s      0.001w     12 calls
New vector                          :      0.000u      0.000s      0.000w     12 calls
HF: Form C                          :      0.000u      0.000s      0.001w     12 calls

--------------------------------------------------------------------------------------
Total PK formation time             :      0.100u      0.000s      0.066w      1 calls
HF: Form core H                     :      0.000u      0.000s      0.001w      1 calls
HF: Form S/X                        :      0.000u      0.000s      0.004w      1 calls
HF: Guess                           :      0.383u      0.000s      0.224w      1 calls
| SAD Guess                         :      0.350u      0.000s      0.210w      1 calls
HF: Form G                          :      0.000u      0.000s      0.003w     13 calls
| JK: D                             :      0.000u      0.000s      0.000w     13 calls
| JK: USO2AO                        :      0.000u      0.000s      0.000w     13 calls
| JK: JK                            :      0.000u      0.000s      0.002w     13 calls
| | PK computes JK                  :      0.000u      0.000s      0.002w     13 calls
| JK: AO2USO                        :      0.000u      0.000s      0.000w     13 calls
HF: Form F                          :      0.000u      0.000s      0.000w     13 calls
HF: Form D                          :      0.000u      0.000s      0.000w     13 calls
HF: DIIS                            :      0.017u      0.017s      0.009w     12 calls
| DIISManager::add_entry            :      0.000u      0.017s      0.001w     12 calls
| DIISManager::extrapolate          :      0.017u      0.000s      0.002w     12 calls
| | bMatrix setup                   :      0.000u      0.000s      0.001w     12 calls
| | bMatrix pseudoinverse           :      0.017u      0.000s      0.001w     12 calls
| | New vector                      :      0.000u      0.000s      0.000w     12 calls
HF: Form C                          :      0.000u      0.000s      0.001w     12 calls

**************************************************************************************

Host: penguin

Timers On : Sun Jan 12 20:57:30 2020
Timers Off: Sun Jan 12 20:57:58 2020

Wall Time:       27.87 seconds

                                                       Time (seconds)
Module                                       User      System        Wall        Calls
Total PK formation time             :      0.100u      0.000s      0.059w      1 calls
HF: Form core H                     :      0.000u      0.000s      0.001w      1 calls
HF: Form S/X                        :      0.000u      0.000s      0.000w      1 calls
HF: Guess                           :      0.317u      0.017s      0.197w      1 calls
SAD Guess                           :      0.300u      0.017s      0.185w      1 calls
HF: Form G                          :      0.000u      0.000s      0.002w     13 calls
JK: D                               :      0.000u      0.000s      0.000w     13 calls
JK: USO2AO                          :      0.000u      0.000s      0.000w     13 calls
JK: JK                              :      0.000u      0.000s      0.001w     13 calls
PK computes JK                      :      0.000u      0.000s      0.001w     13 calls
JK: AO2USO                          :      0.000u      0.000s      0.000w     13 calls
HF: Form F                          :      0.000u      0.000s      0.000w     13 calls
HF: Form D                          :      0.000u      0.000s      0.000w     13 calls
HF: DIIS                            :      0.017u      0.000s      0.009w     12 calls
DIISManager::add_entry              :      0.000u      0.000s      0.001w     12 calls
DIISManager::extrapolate            :      0.017u      0.000s      0.002w     12 calls
bMatrix setup                       :      0.017u      0.000s      0.001w     12 calls
bMatrix pseudoinverse               :      0.000u      0.000s      0.001w     12 calls
New vector                          :      0.000u      0.000s      0.000w     12 calls
HF: Form C                          :      0.000u      0.000s      0.001w     12 calls

--------------------------------------------------------------------------------------
Total PK formation time             :      0.100u      0.000s      0.059w      1 calls
HF: Form core H                     :      0.000u      0.000s      0.001w      1 calls
HF: Form S/X                        :      0.000u      0.000s      0.000w      1 calls
HF: Guess                           :      0.317u      0.017s      0.197w      1 calls
| SAD Guess                         :      0.300u      0.017s      0.185w      1 calls
HF: Form G                          :      0.000u      0.000s      0.002w     13 calls
| JK: D                             :      0.000u      0.000s      0.000w     13 calls
| JK: USO2AO                        :      0.000u      0.000s      0.000w     13 calls
| JK: JK                            :      0.000u      0.000s      0.001w     13 calls
| | PK computes JK                  :      0.000u      0.000s      0.001w     13 calls
| JK: AO2USO                        :      0.000u      0.000s      0.000w     13 calls
HF: Form F                          :      0.000u      0.000s      0.000w     13 calls
HF: Form D                          :      0.000u      0.000s      0.000w     13 calls
HF: DIIS                            :      0.017u      0.000s      0.009w     12 calls
| DIISManager::add_entry            :      0.000u      0.000s      0.001w     12 calls
| DIISManager::extrapolate          :      0.017u      0.000s      0.002w     12 calls
| | bMatrix setup                   :      0.017u      0.000s      0.001w     12 calls
| | bMatrix pseudoinverse           :      0.000u      0.000s      0.001w     12 calls
| | New vector                      :      0.000u      0.000s      0.000w     12 calls
HF: Form C                          :      0.000u      0.000s      0.001w     12 calls

**************************************************************************************

Host: penguin

Timers On : Sun Jan 12 21:00:08 2020
Timers Off: Sun Jan 12 21:00:19 2020

Wall Time:       10.88 seconds

                                                       Time (seconds)
Module                                       User      System        Wall        Calls
Total PK formation time             :      0.100u      0.000s      0.057w      1 calls
HF: Form core H                     :      0.000u      0.000s      0.003w      1 calls
HF: Form S/X                        :      0.000u      0.000s      0.000w      1 calls
HF: Guess                           :      0.350u      0.000s      0.209w      1 calls
SAD Guess                           :      0.333u      0.000s      0.196w      1 calls
HF: Form G                          :      0.000u      0.000s      0.002w     13 calls
JK: D                               :      0.000u      0.000s      0.000w     13 calls
JK: USO2AO                          :      0.000u      0.000s      0.000w     13 calls
JK: JK                              :      0.000u      0.000s      0.001w     13 calls
PK computes JK                      :      0.000u      0.000s      0.001w     13 calls
JK: AO2USO                          :      0.000u      0.000s      0.000w     13 calls
HF: Form F                          :      0.000u      0.000s      0.000w     13 calls
HF: Form D                          :      0.000u      0.000s      0.000w     13 calls
HF: DIIS                            :      0.000u      0.017s      0.009w     12 calls
DIISManager::add_entry              :      0.000u      0.017s      0.001w     12 calls
DIISManager::extrapolate            :      0.000u      0.000s      0.002w     12 calls
bMatrix setup                       :      0.000u      0.000s      0.001w     12 calls
bMatrix pseudoinverse               :      0.000u      0.000s      0.000w     12 calls
New vector                          :      0.000u      0.000s      0.001w     12 calls
HF: Form C                          :      0.000u      0.000s      0.001w     12 calls

--------------------------------------------------------------------------------------
Total PK formation time             :      0.100u      0.000s      0.057w      1 calls
HF: Form core H                     :      0.000u      0.000s      0.003w      1 calls
HF: Form S/X                        :      0.000u      0.000s      0.000w      1 calls
HF: Guess                           :      0.350u      0.000s      0.209w      1 calls
| SAD Guess                         :      0.333u      0.000s      0.196w      1 calls
HF: Form G                          :      0.000u      0.000s      0.002w     13 calls
| JK: D                             :      0.000u      0.000s      0.000w     13 calls
| JK: USO2AO                        :      0.000u      0.000s      0.000w     13 calls
| JK: JK                            :      0.000u      0.000s      0.001w     13 calls
| | PK computes JK                  :      0.000u      0.000s      0.001w     13 calls
| JK: AO2USO                        :      0.000u      0.000s      0.000w     13 calls
HF: Form F                          :      0.000u      0.000s      0.000w     13 calls
HF: Form D                          :      0.000u      0.000s      0.000w     13 calls
HF: DIIS                            :      0.000u      0.017s      0.009w     12 calls
| DIISManager::add_entry            :      0.000u      0.017s      0.001w     12 calls
| DIISManager::extrapolate          :      0.000u      0.000s      0.002w     12 calls
| | bMatrix setup                   :      0.000u      0.000s      0.001w     12 calls
| | bMatrix pseudoinverse           :      0.000u      0.000s      0.000w     12 calls
| | New vector                      :      0.000u      0.000s      0.001w     12 calls
HF: Form C                          :      0.000u      0.000s      0.001w     12 calls

**************************************************************************************

Host: penguin

Timers On : Sun Jan 12 21:00:46 2020
Timers Off: Sun Jan 12 21:01:14 2020

Wall Time:       28.37 seconds

                                                       Time (seconds)
Module                                       User      System        Wall        Calls
Total PK formation time             :      0.100u      0.000s      0.055w      1 calls
HF: Form core H                     :      0.000u      0.000s      0.001w      1 calls
HF: Form S/X                        :      0.000u      0.000s      0.000w      1 calls
HF: Guess                           :      0.317u      0.000s      0.195w      1 calls
SAD Guess                           :      0.300u      0.000s      0.183w      1 calls
HF: Form G                          :      0.000u      0.000s      0.002w     13 calls
JK: D                               :      0.000u      0.000s      0.000w     13 calls
JK: USO2AO                          :      0.000u      0.000s      0.000w     13 calls
JK: JK                              :      0.000u      0.000s      0.001w     13 calls
PK computes JK                      :      0.000u      0.000s      0.001w     13 calls
JK: AO2USO                          :      0.000u      0.000s      0.000w     13 calls
HF: Form F                          :      0.000u      0.000s      0.000w     13 calls
HF: Form D                          :      0.000u      0.000s      0.000w     13 calls
HF: DIIS                            :      0.017u      0.000s      0.009w     12 calls
DIISManager::add_entry              :      0.000u      0.000s      0.001w     12 calls
DIISManager::extrapolate            :      0.000u      0.000s      0.002w     12 calls
bMatrix setup                       :      0.000u      0.000s      0.001w     12 calls
bMatrix pseudoinverse               :      0.000u      0.000s      0.000w     12 calls
New vector                          :      0.000u      0.000s      0.000w     12 calls
HF: Form C                          :      0.000u      0.000s      0.001w     12 calls

--------------------------------------------------------------------------------------
Total PK formation time             :      0.100u      0.000s      0.055w      1 calls
HF: Form core H                     :      0.000u      0.000s      0.001w      1 calls
HF: Form S/X                        :      0.000u      0.000s      0.000w      1 calls
HF: Guess                           :      0.317u      0.000s      0.195w      1 calls
| SAD Guess                         :      0.300u      0.000s      0.183w      1 calls
HF: Form G                          :      0.000u      0.000s      0.002w     13 calls
| JK: D                             :      0.000u      0.000s      0.000w     13 calls
| JK: USO2AO                        :      0.000u      0.000s      0.000w     13 calls
| JK: JK                            :      0.000u      0.000s      0.001w     13 calls
| | PK computes JK                  :      0.000u      0.000s      0.001w     13 calls
| JK: AO2USO                        :      0.000u      0.000s      0.000w     13 calls
HF: Form F                          :      0.000u      0.000s      0.000w     13 calls
HF: Form D                          :      0.000u      0.000s      0.000w     13 calls
HF: DIIS                            :      0.017u      0.000s      0.009w     12 calls
| DIISManager::add_entry            :      0.000u      0.000s      0.001w     12 calls
| DIISManager::extrapolate          :      0.000u      0.000s      0.002w     12 calls
| | bMatrix setup                   :      0.000u      0.000s      0.001w     12 calls
| | bMatrix pseudoinverse           :      0.000u      0.000s      0.000w     12 calls
| | New vector                      :      0.000u      0.000s      0.000w     12 calls
HF: Form C                          :      0.000u      0.000s      0.001w     12 calls

**************************************************************************************

Host: penguin

Timers On : Sun Jan 12 21:04:55 2020
Timers Off: Sun Jan 12 21:05:24 2020

Wall Time:       28.96 seconds

                                                       Time (seconds)
Module                                       User      System        Wall        Calls
Total PK formation time             :      0.083u      0.017s      0.058w      1 calls
HF: Form core H                     :      0.000u      0.000s      0.002w      1 calls
HF: Form S/X                        :      0.000u      0.000s      0.000w      1 calls
HF: Guess                           :      0.350u      0.000s      0.216w      1 calls
SAD Guess                           :      0.333u      0.000s      0.203w      1 calls
HF: Form G                          :      0.000u      0.000s      0.002w     13 calls
JK: D                               :      0.000u      0.000s      0.000w     13 calls
JK: USO2AO                          :      0.000u      0.000s      0.000w     13 calls
JK: JK                              :      0.000u      0.000s      0.002w     13 calls
PK computes JK                      :      0.000u      0.000s      0.002w     13 calls
JK: AO2USO                          :      0.000u      0.000s      0.000w     13 calls
HF: Form F                          :      0.000u      0.000s      0.000w     13 calls
HF: Form D                          :      0.000u      0.000s      0.000w     13 calls
HF: DIIS                            :      0.017u      0.000s      0.009w     12 calls
DIISManager::add_entry              :      0.000u      0.000s      0.001w     12 calls
DIISManager::extrapolate            :      0.017u      0.000s      0.002w     12 calls
bMatrix setup                       :      0.017u      0.000s      0.001w     12 calls
bMatrix pseudoinverse               :      0.000u      0.000s      0.001w     12 calls
New vector                          :      0.000u      0.000s      0.000w     12 calls
HF: Form C                          :      0.017u      0.000s      0.001w     12 calls

--------------------------------------------------------------------------------------
Total PK formation time             :      0.083u      0.017s      0.058w      1 calls
HF: Form core H                     :      0.000u      0.000s      0.002w      1 calls
HF: Form S/X                        :      0.000u      0.000s      0.000w      1 calls
HF: Guess                           :      0.350u      0.000s      0.216w      1 calls
| SAD Guess                         :      0.333u      0.000s      0.203w      1 calls
HF: Form G                          :      0.000u      0.000s      0.002w     13 calls
| JK: D                             :      0.000u      0.000s      0.000w     13 calls
| JK: USO2AO                        :      0.000u      0.000s      0.000w     13 calls
| JK: JK                            :      0.000u      0.000s      0.002w     13 calls
| | PK computes JK                  :      0.000u      0.000s      0.002w     13 calls
| JK: AO2USO                        :      0.000u      0.000s      0.000w     13 calls
HF: Form F                          :      0.000u      0.000s      0.000w     13 calls
HF: Form D                          :      0.000u      0.000s      0.000w     13 calls
HF: DIIS                            :      0.017u      0.000s      0.009w     12 calls
| DIISManager::add_entry            :      0.000u      0.000s      0.001w     12 calls
| DIISManager::extrapolate          :      0.017u      0.000s      0.002w     12 calls
| | bMatrix setup                   :      0.017u      0.000s      0.001w     12 calls
| | bMatrix pseudoinverse           :      0.000u      0.000s      0.001w     12 calls
| | New vector                      :      0.000u      0.000s      0.000w     12 calls
HF: Form C                          :      0.017u      0.000s      0.001w     12 calls

**************************************************************************************

Host: penguin

Timers On : Sun Jan 12 21:06:16 2020
Timers Off: Sun Jan 12 21:06:45 2020

Wall Time:       28.89 seconds

                                                       Time (seconds)
Module                                       User      System        Wall        Calls
Total PK formation time             :      0.083u      0.017s      0.055w      1 calls
HF: Form core H                     :      0.000u      0.000s      0.001w      1 calls
HF: Form S/X                        :      0.000u      0.000s      0.001w      1 calls
HF: Guess                           :      0.317u      0.000s      0.192w      1 calls
SAD Guess                           :      0.300u      0.000s      0.180w      1 calls
HF: Form G                          :      0.000u      0.000s      0.002w     13 calls
JK: D                               :      0.000u      0.000s      0.000w     13 calls
JK: USO2AO                          :      0.000u      0.000s      0.000w     13 calls
JK: JK                              :      0.000u      0.000s      0.001w     13 calls
PK computes JK                      :      0.000u      0.000s      0.001w     13 calls
JK: AO2USO                          :      0.000u      0.000s      0.000w     13 calls
HF: Form F                          :      0.000u      0.000s      0.000w     13 calls
HF: Form D                          :      0.000u      0.000s      0.000w     13 calls
HF: DIIS                            :      0.017u      0.000s      0.008w     12 calls
DIISManager::add_entry              :      0.000u      0.000s      0.001w     12 calls
DIISManager::extrapolate            :      0.017u      0.000s      0.002w     12 calls
bMatrix setup                       :      0.000u      0.000s      0.001w     12 calls
bMatrix pseudoinverse               :      0.017u      0.000s      0.000w     12 calls
New vector                          :      0.000u      0.000s      0.000w     12 calls
HF: Form C                          :      0.000u      0.000s      0.001w     12 calls

--------------------------------------------------------------------------------------
Total PK formation time             :      0.083u      0.017s      0.055w      1 calls
HF: Form core H                     :      0.000u      0.000s      0.001w      1 calls
HF: Form S/X                        :      0.000u      0.000s      0.001w      1 calls
HF: Guess                           :      0.317u      0.000s      0.192w      1 calls
| SAD Guess                         :      0.300u      0.000s      0.180w      1 calls
HF: Form G                          :      0.000u      0.000s      0.002w     13 calls
| JK: D                             :      0.000u      0.000s      0.000w     13 calls
| JK: USO2AO                        :      0.000u      0.000s      0.000w     13 calls
| JK: JK                            :      0.000u      0.000s      0.001w     13 calls
| | PK computes JK                  :      0.000u      0.000s      0.001w     13 calls
| JK: AO2USO                        :      0.000u      0.000s      0.000w     13 calls
HF: Form F                          :      0.000u      0.000s      0.000w     13 calls
HF: Form D                          :      0.000u      0.000s      0.000w     13 calls
HF: DIIS                            :      0.017u      0.000s      0.008w     12 calls
| DIISManager::add_entry            :      0.000u      0.000s      0.001w     12 calls
| DIISManager::extrapolate          :      0.017u      0.000s      0.002w     12 calls
| | bMatrix setup                   :      0.000u      0.000s      0.001w     12 calls
| | bMatrix pseudoinverse           :      0.017u      0.000s      0.000w     12 calls
| | New vector                      :      0.000u      0.000s      0.000w     12 calls
HF: Form C                          :      0.000u      0.000s      0.001w     12 calls

**************************************************************************************

Host: davis-ws

Timers On : Mon Jan 13 14:13:04 2020
Timers Off: Mon Jan 13 14:14:44 2020

Wall Time:       99.45 seconds

                                                       Time (seconds)
Module                                       User      System        Wall        Calls
Total PK formation time             :      0.117u      0.000s      0.071w      2 calls
HF: Form core H                     :      0.000u      0.000s      0.001w      2 calls
HF: Form S/X                        :      0.000u      0.000s      0.000w      2 calls
HF: Guess                           :      0.417u      0.017s      0.250w      2 calls
SAD Guess                           :      0.383u      0.000s      0.234w      2 calls
HF: Form G                          :      0.000u      0.000s      0.002w     29 calls
JK: D                               :      0.000u      0.000s      0.000w     29 calls
JK: USO2AO                          :      0.000u      0.000s      0.000w     29 calls
JK: JK                              :      0.000u      0.000s      0.002w     29 calls
PK computes JK                      :      0.000u      0.000s      0.002w     29 calls
JK: AO2USO                          :      0.000u      0.000s      0.000w     29 calls
HF: Form F                          :      0.000u      0.000s      0.000w     29 calls
HF: Form D                          :      0.000u      0.000s      0.000w     29 calls
HF: DIIS                            :      0.033u      0.000s      0.011w     27 calls
DIISManager::add_entry              :      0.000u      0.000s      0.001w     27 calls
DIISManager::extrapolate            :      0.033u      0.000s      0.002w     27 calls
bMatrix setup                       :      0.017u      0.000s      0.001w     27 calls
bMatrix pseudoinverse               :      0.000u      0.000s      0.001w     27 calls
New vector                          :      0.017u      0.000s      0.001w     27 calls
HF: Form C                          :      0.000u      0.000s      0.002w     27 calls

--------------------------------------------------------------------------------------
Total PK formation time             :      0.117u      0.000s      0.071w      2 calls
HF: Form core H                     :      0.000u      0.000s      0.001w      2 calls
HF: Form S/X                        :      0.000u      0.000s      0.000w      2 calls
HF: Guess                           :      0.417u      0.017s      0.250w      2 calls
| SAD Guess                         :      0.383u      0.000s      0.234w      2 calls
HF: Form G                          :      0.000u      0.000s      0.002w     29 calls
| JK: D                             :      0.000u      0.000s      0.000w     29 calls
| JK: USO2AO                        :      0.000u      0.000s      0.000w     29 calls
| JK: JK                            :      0.000u      0.000s      0.002w     29 calls
| | PK computes JK                  :      0.000u      0.000s      0.002w     29 calls
| JK: AO2USO                        :      0.000u      0.000s      0.000w     29 calls
HF: Form F                          :      0.000u      0.000s      0.000w     29 calls
HF: Form D                          :      0.000u      0.000s      0.000w     29 calls
HF: DIIS                            :      0.033u      0.000s      0.011w     27 calls
| DIISManager::add_entry            :      0.000u      0.000s      0.001w     27 calls
| DIISManager::extrapolate          :      0.033u      0.000s      0.002w     27 calls
| | bMatrix setup                   :      0.017u      0.000s      0.001w     27 calls
| | bMatrix pseudoinverse           :      0.000u      0.000s      0.001w     27 calls
| | New vector                      :      0.017u      0.000s      0.001w     27 calls
HF: Form C                          :      0.000u      0.000s      0.002w     27 calls

**************************************************************************************

Host: davis-ws

Timers On : Mon Jan 13 14:17:59 2020
Timers Off: Mon Jan 13 14:18:27 2020

Wall Time:       28.01 seconds

                                                       Time (seconds)
Module                                       User      System        Wall        Calls
Total PK formation time             :      0.100u      0.000s      0.070w      2 calls
HF: Form core H                     :      0.017u      0.000s      0.001w      2 calls
HF: Form S/X                        :      0.017u      0.000s      0.000w      2 calls
HF: Guess                           :      0.400u      0.000s      0.249w      2 calls
SAD Guess                           :      0.400u      0.000s      0.233w      2 calls
HF: Form G                          :      0.033u      0.000s      0.002w     29 calls
JK: D                               :      0.000u      0.000s      0.000w     29 calls
JK: USO2AO                          :      0.000u      0.000s      0.000w     29 calls
JK: JK                              :      0.000u      0.000s      0.002w     29 calls
PK computes JK                      :      0.000u      0.000s      0.002w     29 calls
JK: AO2USO                          :      0.000u      0.000s      0.000w     29 calls
HF: Form F                          :      0.000u      0.000s      0.000w     29 calls
HF: Form D                          :      0.000u      0.000s      0.000w     29 calls
HF: DIIS                            :      0.017u      0.000s      0.011w     27 calls
DIISManager::add_entry              :      0.000u      0.000s      0.001w     27 calls
DIISManager::extrapolate            :      0.017u      0.000s      0.002w     27 calls
bMatrix setup                       :      0.017u      0.000s      0.001w     27 calls
bMatrix pseudoinverse               :      0.000u      0.000s      0.001w     27 calls
New vector                          :      0.000u      0.000s      0.001w     27 calls
HF: Form C                          :      0.000u      0.000s      0.002w     27 calls

--------------------------------------------------------------------------------------
Total PK formation time             :      0.100u      0.000s      0.070w      2 calls
HF: Form core H                     :      0.017u      0.000s      0.001w      2 calls
HF: Form S/X                        :      0.017u      0.000s      0.000w      2 calls
HF: Guess                           :      0.400u      0.000s      0.249w      2 calls
| SAD Guess                         :      0.400u      0.000s      0.233w      2 calls
HF: Form G                          :      0.033u      0.000s      0.002w     29 calls
| JK: D                             :      0.000u      0.000s      0.000w     29 calls
| JK: USO2AO                        :      0.000u      0.000s      0.000w     29 calls
| JK: JK                            :      0.000u      0.000s      0.002w     29 calls
| | PK computes JK                  :      0.000u      0.000s      0.002w     29 calls
| JK: AO2USO                        :      0.000u      0.000s      0.000w     29 calls
HF: Form F                          :      0.000u      0.000s      0.000w     29 calls
HF: Form D                          :      0.000u      0.000s      0.000w     29 calls
HF: DIIS                            :      0.017u      0.000s      0.011w     27 calls
| DIISManager::add_entry            :      0.000u      0.000s      0.001w     27 calls
| DIISManager::extrapolate          :      0.017u      0.000s      0.002w     27 calls
| | bMatrix setup                   :      0.017u      0.000s      0.001w     27 calls
| | bMatrix pseudoinverse           :      0.000u      0.000s      0.001w     27 calls
| | New vector                      :      0.000u      0.000s      0.001w     27 calls
HF: Form C                          :      0.000u      0.000s      0.002w     27 calls

**************************************************************************************

Host: davis-ws

Timers On : Mon Jan 13 14:18:54 2020
Timers Off: Mon Jan 13 14:19:50 2020

Wall Time:       56.12 seconds

                                                       Time (seconds)
Module                                       User      System        Wall        Calls
Total PK formation time             :      0.100u      0.000s      0.069w      2 calls
HF: Form core H                     :      0.017u      0.000s      0.001w      2 calls
HF: Form S/X                        :      0.000u      0.000s      0.000w      2 calls
HF: Guess                           :      0.417u      0.000s      0.246w      2 calls
SAD Guess                           :      0.400u      0.000s      0.231w      2 calls
HF: Form G                          :      0.000u      0.000s      0.002w     29 calls
JK: D                               :      0.000u      0.000s      0.000w     29 calls
JK: USO2AO                          :      0.000u      0.000s      0.000w     29 calls
JK: JK                              :      0.000u      0.000s      0.002w     29 calls
PK computes JK                      :      0.000u      0.000s      0.002w     29 calls
JK: AO2USO                          :      0.000u      0.000s      0.000w     29 calls
HF: Form F                          :      0.000u      0.000s      0.000w     29 calls
HF: Form D                          :      0.000u      0.000s      0.000w     29 calls
HF: DIIS                            :      0.017u      0.000s      0.011w     27 calls
DIISManager::add_entry              :      0.000u      0.000s      0.001w     27 calls
DIISManager::extrapolate            :      0.017u      0.000s      0.002w     27 calls
bMatrix setup                       :      0.017u      0.000s      0.001w     27 calls
bMatrix pseudoinverse               :      0.000u      0.000s      0.001w     27 calls
New vector                          :      0.000u      0.000s      0.001w     27 calls
HF: Form C                          :      0.017u      0.000s      0.002w     27 calls

--------------------------------------------------------------------------------------
Total PK formation time             :      0.100u      0.000s      0.069w      2 calls
HF: Form core H                     :      0.017u      0.000s      0.001w      2 calls
HF: Form S/X                        :      0.000u      0.000s      0.000w      2 calls
HF: Guess                           :      0.417u      0.000s      0.246w      2 calls
| SAD Guess                         :      0.400u      0.000s      0.231w      2 calls
HF: Form G                          :      0.000u      0.000s      0.002w     29 calls
| JK: D                             :      0.000u      0.000s      0.000w     29 calls
| JK: USO2AO                        :      0.000u      0.000s      0.000w     29 calls
| JK: JK                            :      0.000u      0.000s      0.002w     29 calls
| | PK computes JK                  :      0.000u      0.000s      0.002w     29 calls
| JK: AO2USO                        :      0.000u      0.000s      0.000w     29 calls
HF: Form F                          :      0.000u      0.000s      0.000w     29 calls
HF: Form D                          :      0.000u      0.000s      0.000w     29 calls
HF: DIIS                            :      0.017u      0.000s      0.011w     27 calls
| DIISManager::add_entry            :      0.000u      0.000s      0.001w     27 calls
| DIISManager::extrapolate          :      0.017u      0.000s      0.002w     27 calls
| | bMatrix setup                   :      0.017u      0.000s      0.001w     27 calls
| | bMatrix pseudoinverse           :      0.000u      0.000s      0.001w     27 calls
| | New vector                      :      0.000u      0.000s      0.001w     27 calls
HF: Form C                          :      0.017u      0.000s      0.002w     27 calls

**************************************************************************************

Host: davis-ws

Timers On : Mon Jan 13 14:26:41 2020
Timers Off: Mon Jan 13 14:26:49 2020

Wall Time:        7.93 seconds

                                                       Time (seconds)
Module                                       User      System        Wall        Calls
Total PK formation time             :      0.050u      0.000s      0.033w      1 calls
HF: Form core H                     :      0.000u      0.000s      0.000w      1 calls
HF: Form S/X                        :      0.000u      0.000s      0.000w      1 calls
HF: Guess                           :      0.200u      0.000s      0.121w      1 calls
SAD Guess                           :      0.183u      0.000s      0.113w      1 calls
HF: Form G                          :      0.017u      0.000s      0.001w     13 calls
JK: D                               :      0.000u      0.000s      0.000w     13 calls
JK: USO2AO                          :      0.000u      0.000s      0.000w     13 calls
JK: JK                              :      0.017u      0.000s      0.001w     13 calls
PK computes JK                      :      0.000u      0.000s      0.001w     13 calls
JK: AO2USO                          :      0.000u      0.000s      0.000w     13 calls
HF: Form F                          :      0.000u      0.000s      0.000w     13 calls
HF: Form D                          :      0.000u      0.000s      0.000w     13 calls
HF: DIIS                            :      0.000u      0.000s      0.005w     12 calls
DIISManager::add_entry              :      0.000u      0.000s      0.000w     12 calls
DIISManager::extrapolate            :      0.000u      0.000s      0.001w     12 calls
bMatrix setup                       :      0.000u      0.000s      0.000w     12 calls
bMatrix pseudoinverse               :      0.000u      0.000s      0.000w     12 calls
New vector                          :      0.000u      0.000s      0.000w     12 calls
HF: Form C                          :      0.000u      0.000s      0.001w     12 calls

--------------------------------------------------------------------------------------
Total PK formation time             :      0.050u      0.000s      0.033w      1 calls
HF: Form core H                     :      0.000u      0.000s      0.000w      1 calls
HF: Form S/X                        :      0.000u      0.000s      0.000w      1 calls
HF: Guess                           :      0.200u      0.000s      0.121w      1 calls
| SAD Guess                         :      0.183u      0.000s      0.113w      1 calls
HF: Form G                          :      0.017u      0.000s      0.001w     13 calls
| JK: D                             :      0.000u      0.000s      0.000w     13 calls
| JK: USO2AO                        :      0.000u      0.000s      0.000w     13 calls
| JK: JK                            :      0.017u      0.000s      0.001w     13 calls
| | PK computes JK                  :      0.000u      0.000s      0.001w     13 calls
| JK: AO2USO                        :      0.000u      0.000s      0.000w     13 calls
HF: Form F                          :      0.000u      0.000s      0.000w     13 calls
HF: Form D                          :      0.000u      0.000s      0.000w     13 calls
HF: DIIS                            :      0.000u      0.000s      0.005w     12 calls
| DIISManager::add_entry            :      0.000u      0.000s      0.000w     12 calls
| DIISManager::extrapolate          :      0.000u      0.000s      0.001w     12 calls
| | bMatrix setup                   :      0.000u      0.000s      0.000w     12 calls
| | bMatrix pseudoinverse           :      0.000u      0.000s      0.000w     12 calls
| | New vector                      :      0.000u      0.000s      0.000w     12 calls
HF: Form C                          :      0.000u      0.000s      0.001w     12 calls

**************************************************************************************

Host: davis-ws

Timers On : Mon Jan 13 14:26:44 2020
Timers Off: Mon Jan 13 14:26:49 2020

Wall Time:        4.68 seconds

                                                       Time (seconds)
Module                                       User      System        Wall        Calls

--------------------------------------------------------------------------------------

**************************************************************************************

Host: davis-ws

Timers On : Mon Jan 13 14:26:44 2020
Timers Off: Mon Jan 13 14:26:49 2020

Wall Time:        4.53 seconds

                                                       Time (seconds)
Module                                       User      System        Wall        Calls

--------------------------------------------------------------------------------------

**************************************************************************************



Host: davis-ws
Host: davis-ws

Host: davis-ws


Timers On : Mon Jan 13 14:26:44 2020
Timers On : Mon Jan 13 14:26:44 2020
Timers On : Mon Jan 13 14:26:44 2020
Timers Off: Mon Jan 13 14:26:49 2020
Timers Off: Mon Jan 13 14:26:49 2020
Timers Off: Mon Jan 13 14:26:49 2020

Wall Time:        4.69 seconds


Wall Time:        4.68 seconds

                                                       Time (seconds)

Wall Time:        4.72 seconds

                                                       Time (seconds)
Module                                       User      System        Wall        Calls
                                                       Time (seconds)
Module                                       User      System        Wall        Calls

--------------------------------------------------------------------------------------
Module                                       User      System        Wall        Calls

--------------------------------------------------------------------------------------

**************************************************************************************

--------------------------------------------------------------------------------------

**************************************************************************************

**************************************************************************************

Host: davis-ws

Timers On : Mon Jan 13 14:26:44 2020
Timers Off: Mon Jan 13 14:26:49 2020

Wall Time:        4.64 seconds

                                                       Time (seconds)
Module                                       User      System        Wall        Calls

--------------------------------------------------------------------------------------

**************************************************************************************

Host: davis-ws

Timers On : Mon Jan 13 14:27:34 2020
Timers Off: Mon Jan 13 14:27:42 2020

Wall Time:        8.09 seconds

                                                       Time (seconds)
Module                                       User      System        Wall        Calls
Total PK formation time             :      0.050u      0.000s      0.033w      1 calls
HF: Form core H                     :      0.000u      0.000s      0.001w      1 calls
HF: Form S/X                        :      0.000u      0.000s      0.000w      1 calls
HF: Guess                           :      0.200u      0.000s      0.119w      1 calls
SAD Guess                           :      0.183u      0.000s      0.111w      1 calls
HF: Form G                          :      0.000u      0.000s      0.001w     13 calls
JK: D                               :      0.000u      0.000s      0.000w     13 calls
JK: USO2AO                          :      0.000u      0.000s      0.000w     13 calls
JK: JK                              :      0.000u      0.000s      0.001w     13 calls
PK computes JK                      :      0.000u      0.000s      0.001w     13 calls
JK: AO2USO                          :      0.000u      0.000s      0.000w     13 calls
HF: Form F                          :      0.000u      0.000s      0.000w     13 calls
HF: Form D                          :      0.000u      0.000s      0.000w     13 calls
HF: DIIS                            :      0.000u      0.000s      0.005w     12 calls
DIISManager::add_entry              :      0.000u      0.000s      0.000w     12 calls
DIISManager::extrapolate            :      0.000u      0.000s      0.001w     12 calls
bMatrix setup                       :      0.000u      0.000s      0.000w     12 calls
bMatrix pseudoinverse               :      0.000u      0.000s      0.000w     12 calls
New vector                          :      0.000u      0.000s      0.000w     12 calls
HF: Form C                          :      0.000u      0.000s      0.001w     12 calls

--------------------------------------------------------------------------------------
Total PK formation time             :      0.050u      0.000s      0.033w      1 calls
HF: Form core H                     :      0.000u      0.000s      0.001w      1 calls
HF: Form S/X                        :      0.000u      0.000s      0.000w      1 calls
HF: Guess                           :      0.200u      0.000s      0.119w      1 calls
| SAD Guess                         :      0.183u      0.000s      0.111w      1 calls
HF: Form G                          :      0.000u      0.000s      0.001w     13 calls
| JK: D                             :      0.000u      0.000s      0.000w     13 calls
| JK: USO2AO                        :      0.000u      0.000s      0.000w     13 calls
| JK: JK                            :      0.000u      0.000s      0.001w     13 calls
| | PK computes JK                  :      0.000u      0.000s      0.001w     13 calls
| JK: AO2USO                        :      0.000u      0.000s      0.000w     13 calls
HF: Form F                          :      0.000u      0.000s      0.000w     13 calls
HF: Form D                          :      0.000u      0.000s      0.000w     13 calls
HF: DIIS                            :      0.000u      0.000s      0.005w     12 calls
| DIISManager::add_entry            :      0.000u      0.000s      0.000w     12 calls
| DIISManager::extrapolate          :      0.000u      0.000s      0.001w     12 calls
| | bMatrix setup                   :      0.000u      0.000s      0.000w     12 calls
| | bMatrix pseudoinverse           :      0.000u      0.000s      0.000w     12 calls
| | New vector                      :      0.000u      0.000s      0.000w     12 calls
HF: Form C                          :      0.000u      0.000s      0.001w     12 calls

**************************************************************************************


Host: davis-ws

Host: davis-ws

Timers On : Mon Jan 13 14:27:38 2020
Timers On : Mon Jan 13 14:27:38 2020
Timers Off: Mon Jan 13 14:27:42 2020
Timers Off: Mon Jan 13 14:27:42 2020

Wall Time:        4.73 seconds


Wall Time:        4.64 seconds

                                                       Time (seconds)
                                                       Time (seconds)
Module                                       User      System        Wall        Calls
Module                                       User      System        Wall        Calls

--------------------------------------------------------------------------------------

--------------------------------------------------------------------------------------

**************************************************************************************

**************************************************************************************

Host: davis-ws

Timers On : Mon Jan 13 14:27:38 2020
Timers Off: Mon Jan 13 14:27:42 2020

Wall Time:        4.68 seconds

                                                       Time (seconds)
Module                                       User      System        Wall        Calls

--------------------------------------------------------------------------------------

**************************************************************************************

Host: davis-ws

Timers On : Mon Jan 13 14:27:38 2020
Timers Off: Mon Jan 13 14:27:42 2020

Wall Time:        4.70 seconds

                                                       Time (seconds)
Module                                       User      System        Wall        Calls

--------------------------------------------------------------------------------------

**************************************************************************************

Host: davis-ws


Host: davis-ws

Timers On : Mon Jan 13 14:27:38 2020
Timers Off: Mon Jan 13 14:27:42 2020
Timers On : Mon Jan 13 14:27:38 2020
Timers Off: Mon Jan 13 14:27:42 2020

Wall Time:        4.74 seconds

                                                       Time (seconds)

Wall Time:        4.70 seconds

Module                                       User      System        Wall        Calls
                                                       Time (seconds)

--------------------------------------------------------------------------------------
Module                                       User      System        Wall        Calls

**************************************************************************************

--------------------------------------------------------------------------------------

**************************************************************************************

Host: davis-ws

Timers On : Mon Jan 13 14:30:02 2020
Timers Off: Mon Jan 13 14:31:21 2020

Wall Time:       79.20 seconds

                                                       Time (seconds)
Module                                       User      System        Wall        Calls

--------------------------------------------------------------------------------------

**************************************************************************************

Host: davis-ws

Timers On : Mon Jan 13 14:30:02 2020
Timers Off: Mon Jan 13 14:31:21 2020

Wall Time:       79.17 seconds

                                                       Time (seconds)
Module                                       User      System        Wall        Calls

--------------------------------------------------------------------------------------

**************************************************************************************


Host: davis-ws

Host: davis-ws

Timers On : Mon Jan 13 14:30:02 2020
Timers On : Mon Jan 13 14:30:02 2020
Timers Off: Mon Jan 13 14:31:21 2020
Timers Off: Mon Jan 13 14:31:21 2020

Wall Time:       79.15 seconds


Wall Time:       79.15 seconds

                                                       Time (seconds)
                                                       Time (seconds)
Module                                       User      System        Wall        Calls
Module                                       User      System        Wall        Calls

--------------------------------------------------------------------------------------

--------------------------------------------------------------------------------------

**************************************************************************************

**************************************************************************************


Host: davis-ws

Host: davis-ws

Timers On : Mon Jan 13 14:30:02 2020
Timers On : Mon Jan 13 14:30:02 2020
Timers Off: Mon Jan 13 14:31:21 2020
Timers Off: Mon Jan 13 14:31:21 2020

Wall Time:       79.24 seconds


Wall Time:       79.19 seconds

                                                       Time (seconds)
                                                       Time (seconds)
Module                                       User      System        Wall        Calls
Module                                       User      System        Wall        Calls

--------------------------------------------------------------------------------------

--------------------------------------------------------------------------------------

**************************************************************************************

**************************************************************************************

Host: davis-ws

Timers On : Mon Jan 13 14:35:39 2020
Timers Off: Mon Jan 13 14:36:46 2020

Wall Time:       66.89 seconds

                                                       Time (seconds)
Module                                       User      System        Wall        Calls
Total PK formation time             :      0.167u      0.000s      0.103w      2 calls
HF: Form core H                     :      0.000u      0.000s      0.001w      2 calls
HF: Form S/X                        :      0.000u      0.000s      0.000w      2 calls
HF: Guess                           :      0.400u      0.000s      0.242w      2 calls
SAD Guess                           :      0.383u      0.000s      0.226w      2 calls
HF: Form G                          :      0.000u      0.000s      0.002w     29 calls
JK: D                               :      0.000u      0.000s      0.000w     29 calls
JK: USO2AO                          :      0.000u      0.000s      0.000w     29 calls
JK: JK                              :      0.000u      0.000s      0.002w     29 calls
PK computes JK                      :      0.000u      0.000s      0.002w     29 calls
JK: AO2USO                          :      0.000u      0.000s      0.000w     29 calls
HF: Form F                          :      0.000u      0.000s      0.000w     29 calls
HF: Form D                          :      0.000u      0.000s      0.000w     29 calls
HF: DIIS                            :      0.000u      0.000s      0.010w     27 calls
DIISManager::add_entry              :      0.000u      0.000s      0.001w     27 calls
DIISManager::extrapolate            :      0.000u      0.000s      0.002w     27 calls
bMatrix setup                       :      0.000u      0.000s      0.001w     27 calls
bMatrix pseudoinverse               :      0.000u      0.000s      0.000w     27 calls
New vector                          :      0.000u      0.000s      0.001w     27 calls
HF: Form C                          :      0.017u      0.000s      0.002w     27 calls

--------------------------------------------------------------------------------------
Total PK formation time             :      0.167u      0.000s      0.103w      2 calls
HF: Form core H                     :      0.000u      0.000s      0.001w      2 calls
HF: Form S/X                        :      0.000u      0.000s      0.000w      2 calls
HF: Guess                           :      0.400u      0.000s      0.242w      2 calls
| SAD Guess                         :      0.383u      0.000s      0.226w      2 calls
HF: Form G                          :      0.000u      0.000s      0.002w     29 calls
| JK: D                             :      0.000u      0.000s      0.000w     29 calls
| JK: USO2AO                        :      0.000u      0.000s      0.000w     29 calls
| JK: JK                            :      0.000u      0.000s      0.002w     29 calls
| | PK computes JK                  :      0.000u      0.000s      0.002w     29 calls
| JK: AO2USO                        :      0.000u      0.000s      0.000w     29 calls
HF: Form F                          :      0.000u      0.000s      0.000w     29 calls
HF: Form D                          :      0.000u      0.000s      0.000w     29 calls
HF: DIIS                            :      0.000u      0.000s      0.010w     27 calls
| DIISManager::add_entry            :      0.000u      0.000s      0.001w     27 calls
| DIISManager::extrapolate          :      0.000u      0.000s      0.002w     27 calls
| | bMatrix setup                   :      0.000u      0.000s      0.001w     27 calls
| | bMatrix pseudoinverse           :      0.000u      0.000s      0.000w     27 calls
| | New vector                      :      0.000u      0.000s      0.001w     27 calls
HF: Form C                          :      0.017u      0.000s      0.002w     27 calls

**************************************************************************************

Host: davis-ws

Timers On : Mon Jan 13 14:35:43 2020
Timers Off: Mon Jan 13 14:36:46 2020

Wall Time:       63.57 seconds

                                                       Time (seconds)
Module                                       User      System        Wall        Calls


--------------------------------------------------------------------------------------

**************************************************************************************
Host: davis-ws

Timers On : Mon Jan 13 14:35:43 2020
Timers Off: Mon Jan 13 14:36:46 2020

Wall Time:       63.57 seconds

                                                       Time (seconds)
Module                                       User      System        Wall        Calls

--------------------------------------------------------------------------------------

**************************************************************************************

Host: davis-ws

Timers On : Mon Jan 13 14:35:43 2020
Timers Off: Mon Jan 13 14:36:46 2020

Wall Time:       63.55 seconds

                                                       Time (seconds)
Module                                       User      System        Wall        Calls

--------------------------------------------------------------------------------------

**************************************************************************************

Host: davis-ws

Timers On : Mon Jan 13 14:35:43 2020
Timers Off: Mon Jan 13 14:36:46 2020

Wall Time:       63.62 seconds

                                                       Time (seconds)
Module                                       User      System        Wall        Calls

--------------------------------------------------------------------------------------

**************************************************************************************

Host: davis-ws

Timers On : Mon Jan 13 14:35:43 2020
Timers Off: Mon Jan 13 14:36:46 2020


Wall Time:       63.62 seconds

Host: davis-ws
                                                       Time (seconds)

Module                                       User      System        Wall        Calls

--------------------------------------------------------------------------------------

**************************************************************************************
Timers On : Mon Jan 13 14:35:43 2020
Timers Off: Mon Jan 13 14:36:46 2020

Wall Time:       63.57 seconds

                                                       Time (seconds)
Module                                       User      System        Wall        Calls

--------------------------------------------------------------------------------------

**************************************************************************************


Host: davis-ws

Host: davis-ws

Timers On : Mon Jan 13 14:37:36 2020
Timers On : Mon Jan 13 14:37:36 2020
Timers Off: Mon Jan 13 14:38:28 2020
Timers Off: Mon Jan 13 14:38:28 2020

Wall Time:       52.73 seconds


Wall Time:       52.68 seconds

                                                       Time (seconds)
                                                       Time (seconds)
Module                                       User      System        Wall        Calls
Module                                       User      System        Wall        Calls

--------------------------------------------------------------------------------------

--------------------------------------------------------------------------------------

**************************************************************************************

**************************************************************************************

Host: davis-ws

Timers On : Mon Jan 13 14:37:36 2020
Timers Off: Mon Jan 13 14:38:28 2020

Wall Time:       52.78 seconds

                                                       Time (seconds)
Module                                       User      System        Wall        Calls

--------------------------------------------------------------------------------------

**************************************************************************************

Host: davis-ws

Timers On : Mon Jan 13 14:37:36 2020
Timers Off: Mon Jan 13 14:38:28 2020

Wall Time:       52.77 seconds

                                                       Time (seconds)
Module                                       User      System        Wall        Calls

--------------------------------------------------------------------------------------

**************************************************************************************


Host: davis-ws
Host: davis-ws


Timers On : Mon Jan 13 14:37:36 2020
Timers On : Mon Jan 13 14:37:36 2020
Timers Off: Mon Jan 13 14:38:28 2020
Timers Off: Mon Jan 13 14:38:28 2020

Wall Time:       52.79 seconds


Wall Time:       52.76 seconds

[...]

**************************************************************************************

Host: penguin

Timers On : Tue Jan 14 20:55:33 2020
Timers Off: Tue Jan 14 20:56:10 2020

Wall Time:       36.97 seconds

                                                       Time (seconds)
Module                                       User      System        Wall        Calls

--------------------------------------------------------------------------------------

**************************************************************************************

Host: penguin

Timers On : Tue Jan 14 20:57:16 2020
Timers Off: Tue Jan 14 20:58:07 2020

Wall Time:       50.17 seconds

                                                       Time (seconds)
Module                                       User      System        Wall        Calls
Total PK formation time             :      0.117u      0.000s      0.062w      1 calls
HF: Form core H                     :      0.000u      0.000s      0.001w      1 calls
HF: Form S/X                        :      0.000u      0.017s      0.005w      1 calls
HF: Guess                           :      0.333u      0.000s      0.201w      1 calls
SAD Guess                           :      0.317u      0.000s      0.187w      1 calls
HF: Form G                          :      0.000u      0.000s      0.002w     13 calls
JK: D                               :      0.000u      0.000s      0.000w     13 calls
JK: USO2AO                          :      0.000u      0.000s      0.000w     13 calls
JK: JK                              :      0.000u      0.000s      0.001w     13 calls
PK computes JK                      :      0.000u      0.000s      0.001w     13 calls
JK: AO2USO                          :      0.000u      0.000s      0.000w     13 calls
HF: Form F                          :      0.000u      0.000s      0.000w     13 calls
HF: Form D                          :      0.000u      0.000s      0.000w     13 calls
HF: DIIS                            :      0.000u      0.000s      0.008w     12 calls
DIISManager::add_entry              :      0.000u      0.000s      0.001w     12 calls
DIISManager::extrapolate            :      0.000u      0.000s      0.002w     12 calls
bMatrix setup                       :      0.000u      0.000s      0.001w     12 calls
bMatrix pseudoinverse               :      0.000u      0.000s      0.000w     12 calls
New vector                          :      0.000u      0.000s      0.000w     12 calls
HF: Form C                          :      0.000u      0.000s      0.001w     12 calls

--------------------------------------------------------------------------------------
Total PK formation time             :      0.117u      0.000s      0.062w      1 calls
HF: Form core H                     :      0.000u      0.000s      0.001w      1 calls
HF: Form S/X                        :      0.000u      0.017s      0.005w      1 calls
HF: Guess                           :      0.333u      0.000s      0.201w      1 calls
| SAD Guess                         :      0.317u      0.000s      0.187w      1 calls
HF: Form G                          :      0.000u      0.000s      0.002w     13 calls
| JK: D                             :      0.000u      0.000s      0.000w     13 calls
| JK: USO2AO                        :      0.000u      0.000s      0.000w     13 calls
| JK: JK                            :      0.000u      0.000s      0.001w     13 calls
| | PK computes JK                  :      0.000u      0.000s      0.001w     13 calls
| JK: AO2USO                        :      0.000u      0.000s      0.000w     13 calls
HF: Form F                          :      0.000u      0.000s      0.000w     13 calls
HF: Form D                          :      0.000u      0.000s      0.000w     13 calls
HF: DIIS                            :      0.000u      0.000s      0.008w     12 calls
| DIISManager::add_entry            :      0.000u      0.000s      0.001w     12 calls
| DIISManager::extrapolate          :      0.000u      0.000s      0.002w     12 calls
| | bMatrix setup                   :      0.000u      0.000s      0.001w     12 calls
| | bMatrix pseudoinverse           :      0.000u      0.000s      0.000w     12 calls
| | New vector                      :      0.000u      0.000s      0.000w     12 calls
HF: Form C                          :      0.000u      0.000s      0.001w     12 calls

**************************************************************************************

Host: penguin

Timers On : Tue Jan 14 20:57:24 2020
Timers Off: Tue Jan 14 20:58:07 2020

Wall Time:       43.16 seconds

                                                       Time (seconds)
Module                                       User      System        Wall        Calls

--------------------------------------------------------------------------------------

**************************************************************************************

Host: penguin

Timers On : Tue Jan 14 20:57:24 2020
Timers Off: Tue Jan 14 20:58:07 2020

Wall Time:       43.40 seconds

                                                       Time (seconds)
Module                                       User      System        Wall        Calls

--------------------------------------------------------------------------------------

**************************************************************************************

Host: penguin

Timers On : Tue Jan 14 20:59:59 2020
Timers Off: Tue Jan 14 21:00:48 2020

Wall Time:       49.09 seconds

                                                       Time (seconds)
Module                                       User      System        Wall        Calls
Total PK formation time             :      0.083u      0.000s      0.058w      1 calls
HF: Form core H                     :      0.000u      0.017s      0.001w      1 calls
HF: Form S/X                        :      0.000u      0.000s      0.000w      1 calls
HF: Guess                           :      0.367u      0.000s      0.212w      1 calls
SAD Guess                           :      0.333u      0.000s      0.200w      1 calls
HF: Form G                          :      0.000u      0.000s      0.002w     13 calls
JK: D                               :      0.000u      0.000s      0.000w     13 calls
JK: USO2AO                          :      0.000u      0.000s      0.000w     13 calls
JK: JK                              :      0.000u      0.000s      0.002w     13 calls
PK computes JK                      :      0.000u      0.000s      0.001w     13 calls
JK: AO2USO                          :      0.000u      0.000s      0.000w     13 calls
HF: Form F                          :      0.000u      0.000s      0.000w     13 calls
HF: Form D                          :      0.000u      0.000s      0.000w     13 calls
HF: DIIS                            :      0.000u      0.000s      0.011w     12 calls
DIISManager::add_entry              :      0.000u      0.000s      0.001w     12 calls
DIISManager::extrapolate            :      0.000u      0.000s      0.002w     12 calls
bMatrix setup                       :      0.000u      0.000s      0.001w     12 calls
bMatrix pseudoinverse               :      0.000u      0.000s      0.001w     12 calls
New vector                          :      0.000u      0.000s      0.001w     12 calls
HF: Form C                          :      0.017u      0.000s      0.002w     12 calls

--------------------------------------------------------------------------------------
Total PK formation time             :      0.083u      0.000s      0.058w      1 calls
HF: Form core H                     :      0.000u      0.017s      0.001w      1 calls
HF: Form S/X                        :      0.000u      0.000s      0.000w      1 calls
HF: Guess                           :      0.367u      0.000s      0.212w      1 calls
| SAD Guess                         :      0.333u      0.000s      0.200w      1 calls
HF: Form G                          :      0.000u      0.000s      0.002w     13 calls
| JK: D                             :      0.000u      0.000s      0.000w     13 calls
| JK: USO2AO                        :      0.000u      0.000s      0.000w     13 calls
| JK: JK                            :      0.000u      0.000s      0.002w     13 calls
| | PK computes JK                  :      0.000u      0.000s      0.001w     13 calls
| JK: AO2USO                        :      0.000u      0.000s      0.000w     13 calls
HF: Form F                          :      0.000u      0.000s      0.000w     13 calls
HF: Form D                          :      0.000u      0.000s      0.000w     13 calls
HF: DIIS                            :      0.000u      0.000s      0.011w     12 calls
| DIISManager::add_entry            :      0.000u      0.000s      0.001w     12 calls
| DIISManager::extrapolate          :      0.000u      0.000s      0.002w     12 calls
| | bMatrix setup                   :      0.000u      0.000s      0.001w     12 calls
| | bMatrix pseudoinverse           :      0.000u      0.000s      0.001w     12 calls
| | New vector                      :      0.000u      0.000s      0.001w     12 calls
HF: Form C                          :      0.017u      0.000s      0.002w     12 calls

**************************************************************************************

Host: penguin

Timers On : Tue Jan 14 21:00:06 2020
Timers Off: Tue Jan 14 21:00:48 2020

Wall Time:       42.40 seconds

                                                       Time (seconds)
Module                                       User      System        Wall        Calls

--------------------------------------------------------------------------------------

**************************************************************************************

Host: penguin

Timers On : Tue Jan 14 21:00:07 2020
Timers Off: Tue Jan 14 21:00:48 2020

Wall Time:       41.59 seconds

                                                       Time (seconds)
Module                                       User      System        Wall        Calls

--------------------------------------------------------------------------------------

**************************************************************************************

Host: penguin

Timers On : Tue Jan 14 21:11:11 2020
Timers Off: Tue Jan 14 21:12:04 2020

Wall Time:       52.72 seconds

                                                       Time (seconds)
Module                                       User      System        Wall        Calls
Total PK formation time             :      0.100u      0.000s      0.063w      1 calls
HF: Form core H                     :      0.000u      0.000s      0.001w      1 calls
HF: Form S/X                        :      0.000u      0.000s      0.000w      1 calls
HF: Guess                           :      0.367u      0.000s      0.223w      1 calls
SAD Guess                           :      0.350u      0.000s      0.209w      1 calls
HF: Form G                          :      0.000u      0.000s      0.002w     13 calls
JK: D                               :      0.000u      0.000s      0.000w     13 calls
JK: USO2AO                          :      0.000u      0.000s      0.000w     13 calls
JK: JK                              :      0.000u      0.000s      0.002w     13 calls
PK computes JK                      :      0.000u      0.000s      0.002w     13 calls
JK: AO2USO                          :      0.000u      0.000s      0.000w     13 calls
HF: Form F                          :      0.000u      0.000s      0.000w     13 calls
HF: Form D                          :      0.000u      0.000s      0.000w     13 calls
HF: DIIS                            :      0.033u      0.000s      0.009w     12 calls
DIISManager::add_entry              :      0.000u      0.000s      0.001w     12 calls
DIISManager::extrapolate            :      0.000u      0.000s      0.002w     12 calls
bMatrix setup                       :      0.000u      0.000s      0.001w     12 calls
bMatrix pseudoinverse               :      0.000u      0.000s      0.001w     12 calls
New vector                          :      0.000u      0.000s      0.000w     12 calls
HF: Form C                          :      0.000u      0.000s      0.001w     12 calls

--------------------------------------------------------------------------------------
Total PK formation time             :      0.100u      0.000s      0.063w      1 calls
HF: Form core H                     :      0.000u      0.000s      0.001w      1 calls
HF: Form S/X                        :      0.000u      0.000s      0.000w      1 calls
HF: Guess                           :      0.367u      0.000s      0.223w      1 calls
| SAD Guess                         :      0.350u      0.000s      0.209w      1 calls
HF: Form G                          :      0.000u      0.000s      0.002w     13 calls
| JK: D                             :      0.000u      0.000s      0.000w     13 calls
| JK: USO2AO                        :      0.000u      0.000s      0.000w     13 calls
| JK: JK                            :      0.000u      0.000s      0.002w     13 calls
| | PK computes JK                  :      0.000u      0.000s      0.002w     13 calls
| JK: AO2USO                        :      0.000u      0.000s      0.000w     13 calls
HF: Form F                          :      0.000u      0.000s      0.000w     13 calls
HF: Form D                          :      0.000u      0.000s      0.000w     13 calls
HF: DIIS                            :      0.033u      0.000s      0.009w     12 calls
| DIISManager::add_entry            :      0.000u      0.000s      0.001w     12 calls
| DIISManager::extrapolate          :      0.000u      0.000s      0.002w     12 calls
| | bMatrix setup                   :      0.000u      0.000s      0.001w     12 calls
| | bMatrix pseudoinverse           :      0.000u      0.000s      0.001w     12 calls
| | New vector                      :      0.000u      0.000s      0.000w     12 calls
HF: Form C                          :      0.000u      0.000s      0.001w     12 calls

**************************************************************************************

Host: penguin

Timers On : Tue Jan 14 21:11:19 2020
Timers Off: Tue Jan 14 21:12:04 2020

Wall Time:       44.84 seconds

                                                       Time (seconds)
Module                                       User      System        Wall        Calls

--------------------------------------------------------------------------------------

**************************************************************************************

Host: penguin

Timers On : Tue Jan 14 21:11:19 2020
Timers Off: Tue Jan 14 21:12:04 2020

Wall Time:       45.14 seconds

                                                       Time (seconds)
Module                                       User      System        Wall        Calls

--------------------------------------------------------------------------------------

**************************************************************************************

Host: penguin

Timers On : Tue Jan 14 21:12:52 2020
Timers Off: Tue Jan 14 21:13:49 2020

Wall Time:       56.59 seconds

                                                       Time (seconds)
Module                                       User      System        Wall        Calls
Total PK formation time             :      0.133u      0.017s      0.085w      1 calls
HF: Form core H                     :      0.000u      0.000s      0.001w      1 calls
HF: Form S/X                        :      0.017u      0.000s      0.008w      1 calls
HF: Guess                           :      0.417u      0.000s      0.250w      1 calls
SAD Guess                           :      0.383u      0.000s      0.235w      1 calls
HF: Form G                          :      0.000u      0.000s      0.003w     13 calls
JK: D                               :      0.000u      0.000s      0.000w     13 calls
JK: USO2AO                          :      0.000u      0.000s      0.000w     13 calls
JK: JK                              :      0.000u      0.000s      0.002w     13 calls
PK computes JK                      :      0.000u      0.000s      0.002w     13 calls
JK: AO2USO                          :      0.000u      0.000s      0.000w     13 calls
HF: Form F                          :      0.000u      0.000s      0.000w     13 calls
HF: Form D                          :      0.000u      0.000s      0.000w     13 calls
HF: DIIS                            :      0.017u      0.000s      0.013w     12 calls
DIISManager::add_entry              :      0.000u      0.000s      0.002w     12 calls
DIISManager::extrapolate            :      0.000u      0.000s      0.003w     12 calls
bMatrix setup                       :      0.000u      0.000s      0.001w     12 calls
bMatrix pseudoinverse               :      0.000u      0.000s      0.001w     12 calls
New vector                          :      0.000u      0.000s      0.001w     12 calls
HF: Form C                          :      0.000u      0.000s      0.002w     12 calls

--------------------------------------------------------------------------------------
Total PK formation time             :      0.133u      0.017s      0.085w      1 calls
HF: Form core H                     :      0.000u      0.000s      0.001w      1 calls
HF: Form S/X                        :      0.017u      0.000s      0.008w      1 calls
HF: Guess                           :      0.417u      0.000s      0.250w      1 calls
| SAD Guess                         :      0.383u      0.000s      0.235w      1 calls
HF: Form G                          :      0.000u      0.000s      0.003w     13 calls
| JK: D                             :      0.000u      0.000s      0.000w     13 calls
| JK: USO2AO                        :      0.000u      0.000s      0.000w     13 calls
| JK: JK                            :      0.000u      0.000s      0.002w     13 calls
| | PK computes JK                  :      0.000u      0.000s      0.002w     13 calls
| JK: AO2USO                        :      0.000u      0.000s      0.000w     13 calls
HF: Form F                          :      0.000u      0.000s      0.000w     13 calls
HF: Form D                          :      0.000u      0.000s      0.000w     13 calls
HF: DIIS                            :      0.017u      0.000s      0.013w     12 calls
| DIISManager::add_entry            :      0.000u      0.000s      0.002w     12 calls
| DIISManager::extrapolate          :      0.000u      0.000s      0.003w     12 calls
| | bMatrix setup                   :      0.000u      0.000s      0.001w     12 calls
| | bMatrix pseudoinverse           :      0.000u      0.000s      0.001w     12 calls
| | New vector                      :      0.000u      0.000s      0.001w     12 calls
HF: Form C                          :      0.000u      0.000s      0.002w     12 calls

**************************************************************************************

Host: penguin

Timers On : Tue Jan 14 21:13:01 2020
Timers Off: Tue Jan 14 21:13:49 2020

Wall Time:       47.94 seconds

                                                       Time (seconds)
Module                                       User      System        Wall        Calls

--------------------------------------------------------------------------------------

**************************************************************************************

Host: penguin

Timers On : Tue Jan 14 21:13:02 2020
Timers Off: Tue Jan 14 21:13:49 2020

Wall Time:       47.62 seconds

                                                       Time (seconds)
Module                                       User      System        Wall        Calls

--------------------------------------------------------------------------------------

**************************************************************************************
