
Host: penguin

Timers On : Sun Jan 12 20:36:33 2020
Timers Off: Sun Jan 12 20:36:42 2020

Wall Time:        8.91 seconds

                                                       Time (seconds)
Module                                       User      System        Wall        Calls
Total PK formation time             :      0.100u      0.000s      0.059w      1 calls
HF: Form core H                     :      0.000u      0.000s      0.001w      1 calls
HF: Form S/X                        :      0.000u      0.000s      0.001w      1 calls
HF: Guess                           :      0.333u      0.000s      0.205w      1 calls
SAD Guess                           :      0.317u      0.000s      0.192w      1 calls
HF: Form G                          :      0.000u      0.000s      0.002w     13 calls
JK: D                               :      0.000u      0.000s      0.000w     13 calls
JK: USO2AO                          :      0.000u      0.000s      0.000w     13 calls
JK: JK                              :      0.000u      0.000s      0.001w     13 calls
PK computes JK                      :      0.000u      0.000s      0.001w     13 calls
JK: AO2USO                          :      0.000u      0.000s      0.000w     13 calls
HF: Form F                          :      0.000u      0.000s      0.000w     13 calls
HF: Form D                          :      0.000u      0.000s      0.000w     13 calls
HF: DIIS                            :      0.033u      0.000s      0.009w     12 calls
DIISManager::add_entry              :      0.000u      0.000s      0.001w     12 calls
DIISManager::extrapolate            :      0.000u      0.000s      0.002w     12 calls
bMatrix setup                       :      0.000u      0.000s      0.001w     12 calls
bMatrix pseudoinverse               :      0.000u      0.000s      0.000w     12 calls
New vector                          :      0.000u      0.000s      0.000w     12 calls
HF: Form C                          :      0.000u      0.000s      0.001w     12 calls

--------------------------------------------------------------------------------------
Total PK formation time             :      0.100u      0.000s      0.059w      1 calls
HF: Form core H                     :      0.000u      0.000s      0.001w      1 calls
HF: Form S/X                        :      0.000u      0.000s      0.001w      1 calls
HF: Guess                           :      0.333u      0.000s      0.205w      1 calls
| SAD Guess                         :      0.317u      0.000s      0.192w      1 calls
HF: Form G                          :      0.000u      0.000s      0.002w     13 calls
| JK: D                             :      0.000u      0.000s      0.000w     13 calls
| JK: USO2AO                        :      0.000u      0.000s      0.000w     13 calls
| JK: JK                            :      0.000u      0.000s      0.001w     13 calls
| | PK computes JK                  :      0.000u      0.000s      0.001w     13 calls
| JK: AO2USO                        :      0.000u      0.000s      0.000w     13 calls
HF: Form F                          :      0.000u      0.000s      0.000w     13 calls
HF: Form D                          :      0.000u      0.000s      0.000w     13 calls
HF: DIIS                            :      0.033u      0.000s      0.009w     12 calls
| DIISManager::add_entry            :      0.000u      0.000s      0.001w     12 calls
| DIISManager::extrapolate          :      0.000u      0.000s      0.002w     12 calls
| | bMatrix setup                   :      0.000u      0.000s      0.001w     12 calls
| | bMatrix pseudoinverse           :      0.000u      0.000s      0.000w     12 calls
| | New vector                      :      0.000u      0.000s      0.000w     12 calls
HF: Form C                          :      0.000u      0.000s      0.001w     12 calls

**************************************************************************************

Host: penguin

Timers On : Sun Jan 12 20:36:58 2020
Timers Off: Sun Jan 12 20:37:29 2020

Wall Time:       31.00 seconds

                                                       Time (seconds)
Module                                       User      System        Wall        Calls
Total PK formation time             :      0.100u      0.000s      0.060w      1 calls
HF: Form core H                     :      0.000u      0.017s      0.001w      1 calls
HF: Form S/X                        :      0.000u      0.000s      0.000w      1 calls
HF: Guess                           :      0.333u      0.000s      0.202w      1 calls
SAD Guess                           :      0.317u      0.000s      0.189w      1 calls
HF: Form G                          :      0.017u      0.000s      0.002w     13 calls
JK: D                               :      0.000u      0.000s      0.000w     13 calls
JK: USO2AO                          :      0.000u      0.000s      0.000w     13 calls
JK: JK                              :      0.017u      0.000s      0.002w     13 calls
PK computes JK                      :      0.017u      0.000s      0.001w     13 calls
JK: AO2USO                          :      0.000u      0.000s      0.000w     13 calls
HF: Form F                          :      0.000u      0.000s      0.000w     13 calls
HF: Form D                          :      0.000u      0.000s      0.000w     13 calls
HF: DIIS                            :      0.017u      0.000s      0.009w     12 calls
DIISManager::add_entry              :      0.000u      0.000s      0.001w     12 calls
DIISManager::extrapolate            :      0.000u      0.000s      0.002w     12 calls
bMatrix setup                       :      0.000u      0.000s      0.001w     12 calls
bMatrix pseudoinverse               :      0.000u      0.000s      0.001w     12 calls
New vector                          :      0.000u      0.000s      0.000w     12 calls
HF: Form C                          :      0.000u      0.000s      0.001w     12 calls

--------------------------------------------------------------------------------------
Total PK formation time             :      0.100u      0.000s      0.060w      1 calls
HF: Form core H                     :      0.000u      0.017s      0.001w      1 calls
HF: Form S/X                        :      0.000u      0.000s      0.000w      1 calls
HF: Guess                           :      0.333u      0.000s      0.202w      1 calls
| SAD Guess                         :      0.317u      0.000s      0.189w      1 calls
HF: Form G                          :      0.017u      0.000s      0.002w     13 calls
| JK: D                             :      0.000u      0.000s      0.000w     13 calls
| JK: USO2AO                        :      0.000u      0.000s      0.000w     13 calls
| JK: JK                            :      0.017u      0.000s      0.002w     13 calls
| | PK computes JK                  :      0.017u      0.000s      0.001w     13 calls
| JK: AO2USO                        :      0.000u      0.000s      0.000w     13 calls
HF: Form F                          :      0.000u      0.000s      0.000w     13 calls
HF: Form D                          :      0.000u      0.000s      0.000w     13 calls
HF: DIIS                            :      0.017u      0.000s      0.009w     12 calls
| DIISManager::add_entry            :      0.000u      0.000s      0.001w     12 calls
| DIISManager::extrapolate          :      0.000u      0.000s      0.002w     12 calls
| | bMatrix setup                   :      0.000u      0.000s      0.001w     12 calls
| | bMatrix pseudoinverse           :      0.000u      0.000s      0.001w     12 calls
| | New vector                      :      0.000u      0.000s      0.000w     12 calls
HF: Form C                          :      0.000u      0.000s      0.001w     12 calls

**************************************************************************************

Host: penguin

Timers On : Sun Jan 12 20:38:36 2020
Timers Off: Sun Jan 12 20:39:07 2020

Wall Time:       31.32 seconds

                                                       Time (seconds)
Module                                       User      System        Wall        Calls
Total PK formation time             :      0.100u      0.000s      0.058w      1 calls
HF: Form core H                     :      0.000u      0.017s      0.001w      1 calls
HF: Form S/X                        :      0.000u      0.000s      0.000w      1 calls
HF: Guess                           :      0.317u      0.000s      0.191w      1 calls
SAD Guess                           :      0.300u      0.000s      0.179w      1 calls
HF: Form G                          :      0.000u      0.000s      0.002w     13 calls
JK: D                               :      0.000u      0.000s      0.000w     13 calls
JK: USO2AO                          :      0.000u      0.000s      0.000w     13 calls
JK: JK                              :      0.000u      0.000s      0.001w     13 calls
PK computes JK                      :      0.000u      0.000s      0.001w     13 calls
JK: AO2USO                          :      0.000u      0.000s      0.000w     13 calls
HF: Form F                          :      0.000u      0.000s      0.000w     13 calls
HF: Form D                          :      0.000u      0.000s      0.000w     13 calls
HF: DIIS                            :      0.017u      0.000s      0.009w     12 calls
DIISManager::add_entry              :      0.000u      0.000s      0.001w     12 calls
DIISManager::extrapolate            :      0.017u      0.000s      0.002w     12 calls
bMatrix setup                       :      0.000u      0.000s      0.001w     12 calls
bMatrix pseudoinverse               :      0.000u      0.000s      0.001w     12 calls
New vector                          :      0.017u      0.000s      0.000w     12 calls
HF: Form C                          :      0.000u      0.000s      0.001w     12 calls

--------------------------------------------------------------------------------------
Total PK formation time             :      0.100u      0.000s      0.058w      1 calls
HF: Form core H                     :      0.000u      0.017s      0.001w      1 calls
HF: Form S/X                        :      0.000u      0.000s      0.000w      1 calls
HF: Guess                           :      0.317u      0.000s      0.191w      1 calls
| SAD Guess                         :      0.300u      0.000s      0.179w      1 calls
HF: Form G                          :      0.000u      0.000s      0.002w     13 calls
| JK: D                             :      0.000u      0.000s      0.000w     13 calls
| JK: USO2AO                        :      0.000u      0.000s      0.000w     13 calls
| JK: JK                            :      0.000u      0.000s      0.001w     13 calls
| | PK computes JK                  :      0.000u      0.000s      0.001w     13 calls
| JK: AO2USO                        :      0.000u      0.000s      0.000w     13 calls
HF: Form F                          :      0.000u      0.000s      0.000w     13 calls
HF: Form D                          :      0.000u      0.000s      0.000w     13 calls
HF: DIIS                            :      0.017u      0.000s      0.009w     12 calls
| DIISManager::add_entry            :      0.000u      0.000s      0.001w     12 calls
| DIISManager::extrapolate          :      0.017u      0.000s      0.002w     12 calls
| | bMatrix setup                   :      0.000u      0.000s      0.001w     12 calls
| | bMatrix pseudoinverse           :      0.000u      0.000s      0.001w     12 calls
| | New vector                      :      0.017u      0.000s      0.000w     12 calls
HF: Form C                          :      0.000u      0.000s      0.001w     12 calls

**************************************************************************************

Host: penguin

Timers On : Sun Jan 12 20:44:22 2020
Timers Off: Sun Jan 12 20:44:54 2020

Wall Time:       31.54 seconds

                                                       Time (seconds)
Module                                       User      System        Wall        Calls
Total PK formation time             :      0.117u      0.000s      0.072w      1 calls
HF: Form core H                     :      0.000u      0.000s      0.001w      1 calls
HF: Form S/X                        :      0.000u      0.000s      0.003w      1 calls
HF: Guess                           :      0.383u      0.000s      0.231w      1 calls
SAD Guess                           :      0.350u      0.000s      0.216w      1 calls
HF: Form G                          :      0.000u      0.000s      0.002w     13 calls
JK: D                               :      0.000u      0.000s      0.000w     13 calls
JK: USO2AO                          :      0.000u      0.000s      0.000w     13 calls
JK: JK                              :      0.000u      0.000s      0.002w     13 calls
PK computes JK                      :      0.000u      0.000s      0.002w     13 calls
JK: AO2USO                          :      0.000u      0.000s      0.000w     13 calls
HF: Form F                          :      0.000u      0.000s      0.000w     13 calls
HF: Form D                          :      0.000u      0.000s      0.000w     13 calls
HF: DIIS                            :      0.017u      0.017s      0.011w     12 calls
DIISManager::add_entry              :      0.000u      0.000s      0.001w     12 calls
DIISManager::extrapolate            :      0.000u      0.000s      0.002w     12 calls
bMatrix setup                       :      0.000u      0.000s      0.001w     12 calls
bMatrix pseudoinverse               :      0.000u      0.000s      0.001w     12 calls
New vector                          :      0.000u      0.000s      0.000w     12 calls
HF: Form C                          :      0.000u      0.000s      0.001w     12 calls

--------------------------------------------------------------------------------------
Total PK formation time             :      0.117u      0.000s      0.072w      1 calls
HF: Form core H                     :      0.000u      0.000s      0.001w      1 calls
HF: Form S/X                        :      0.000u      0.000s      0.003w      1 calls
HF: Guess                           :      0.383u      0.000s      0.231w      1 calls
| SAD Guess                         :      0.350u      0.000s      0.216w      1 calls
HF: Form G                          :      0.000u      0.000s      0.002w     13 calls
| JK: D                             :      0.000u      0.000s      0.000w     13 calls
| JK: USO2AO                        :      0.000u      0.000s      0.000w     13 calls
| JK: JK                            :      0.000u      0.000s      0.002w     13 calls
| | PK computes JK                  :      0.000u      0.000s      0.002w     13 calls
| JK: AO2USO                        :      0.000u      0.000s      0.000w     13 calls
HF: Form F                          :      0.000u      0.000s      0.000w     13 calls
HF: Form D                          :      0.000u      0.000s      0.000w     13 calls
HF: DIIS                            :      0.017u      0.017s      0.011w     12 calls
| DIISManager::add_entry            :      0.000u      0.000s      0.001w     12 calls
| DIISManager::extrapolate          :      0.000u      0.000s      0.002w     12 calls
| | bMatrix setup                   :      0.000u      0.000s      0.001w     12 calls
| | bMatrix pseudoinverse           :      0.000u      0.000s      0.001w     12 calls
| | New vector                      :      0.000u      0.000s      0.000w     12 calls
HF: Form C                          :      0.000u      0.000s      0.001w     12 calls

**************************************************************************************

Host: penguin

Timers On : Sun Jan 12 20:45:57 2020
Timers Off: Sun Jan 12 20:46:34 2020

Wall Time:       36.69 seconds

                                                       Time (seconds)
Module                                       User      System        Wall        Calls
Total PK formation time             :      0.150u      0.000s      0.087w      1 calls
HF: Form core H                     :      0.000u      0.000s      0.006w      1 calls
HF: Form S/X                        :      0.000u      0.000s      0.000w      1 calls
HF: Guess                           :      0.600u      0.017s      0.370w      1 calls
SAD Guess                           :      0.567u      0.017s      0.354w      1 calls
HF: Form G                          :      0.000u      0.000s      0.003w     13 calls
JK: D                               :      0.000u      0.000s      0.000w     13 calls
JK: USO2AO                          :      0.000u      0.000s      0.000w     13 calls
JK: JK                              :      0.000u      0.000s      0.002w     13 calls
PK computes JK                      :      0.000u      0.000s      0.002w     13 calls
JK: AO2USO                          :      0.000u      0.000s      0.000w     13 calls
HF: Form F                          :      0.000u      0.000s      0.000w     13 calls
HF: Form D                          :      0.000u      0.000s      0.000w     13 calls
HF: DIIS                            :      0.017u      0.000s      0.014w     12 calls
DIISManager::add_entry              :      0.017u      0.000s      0.002w     12 calls
DIISManager::extrapolate            :      0.000u      0.000s      0.003w     12 calls
bMatrix setup                       :      0.000u      0.000s      0.002w     12 calls
bMatrix pseudoinverse               :      0.000u      0.000s      0.001w     12 calls
New vector                          :      0.000u      0.000s      0.001w     12 calls
HF: Form C                          :      0.017u      0.000s      0.002w     12 calls

--------------------------------------------------------------------------------------
Total PK formation time             :      0.150u      0.000s      0.087w      1 calls
HF: Form core H                     :      0.000u      0.000s      0.006w      1 calls
HF: Form S/X                        :      0.000u      0.000s      0.000w      1 calls
HF: Guess                           :      0.600u      0.017s      0.370w      1 calls
| SAD Guess                         :      0.567u      0.017s      0.354w      1 calls
HF: Form G                          :      0.000u      0.000s      0.003w     13 calls
| JK: D                             :      0.000u      0.000s      0.000w     13 calls
| JK: USO2AO                        :      0.000u      0.000s      0.000w     13 calls
| JK: JK                            :      0.000u      0.000s      0.002w     13 calls
| | PK computes JK                  :      0.000u      0.000s      0.002w     13 calls
| JK: AO2USO                        :      0.000u      0.000s      0.000w     13 calls
HF: Form F                          :      0.000u      0.000s      0.000w     13 calls
HF: Form D                          :      0.000u      0.000s      0.000w     13 calls
HF: DIIS                            :      0.017u      0.000s      0.014w     12 calls
| DIISManager::add_entry            :      0.017u      0.000s      0.002w     12 calls
| DIISManager::extrapolate          :      0.000u      0.000s      0.003w     12 calls
| | bMatrix setup                   :      0.000u      0.000s      0.002w     12 calls
| | bMatrix pseudoinverse           :      0.000u      0.000s      0.001w     12 calls
| | New vector                      :      0.000u      0.000s      0.001w     12 calls
HF: Form C                          :      0.017u      0.000s      0.002w     12 calls

**************************************************************************************

Host: penguin

Timers On : Sun Jan 12 20:50:18 2020
Timers Off: Sun Jan 12 20:50:52 2020

Wall Time:       33.92 seconds

                                                       Time (seconds)
Module                                       User      System        Wall        Calls
Total PK formation time             :      0.100u      0.000s      0.066w      1 calls
HF: Form core H                     :      0.000u      0.000s      0.001w      1 calls
HF: Form S/X                        :      0.000u      0.000s      0.004w      1 calls
HF: Guess                           :      0.383u      0.000s      0.224w      1 calls
SAD Guess                           :      0.350u      0.000s      0.210w      1 calls
HF: Form G                          :      0.000u      0.000s      0.003w     13 calls
JK: D                               :      0.000u      0.000s      0.000w     13 calls
JK: USO2AO                          :      0.000u      0.000s      0.000w     13 calls
JK: JK                              :      0.000u      0.000s      0.002w     13 calls
PK computes JK                      :      0.000u      0.000s      0.002w     13 calls
JK: AO2USO                          :      0.000u      0.000s      0.000w     13 calls
HF: Form F                          :      0.000u      0.000s      0.000w     13 calls
HF: Form D                          :      0.000u      0.000s      0.000w     13 calls
HF: DIIS                            :      0.017u      0.017s      0.009w     12 calls
DIISManager::add_entry              :      0.000u      0.017s      0.001w     12 calls
DIISManager::extrapolate            :      0.017u      0.000s      0.002w     12 calls
bMatrix setup                       :      0.000u      0.000s      0.001w     12 calls
bMatrix pseudoinverse               :      0.017u      0.000s      0.001w     12 calls
New vector                          :      0.000u      0.000s      0.000w     12 calls
HF: Form C                          :      0.000u      0.000s      0.001w     12 calls

--------------------------------------------------------------------------------------
Total PK formation time             :      0.100u      0.000s      0.066w      1 calls
HF: Form core H                     :      0.000u      0.000s      0.001w      1 calls
HF: Form S/X                        :      0.000u      0.000s      0.004w      1 calls
HF: Guess                           :      0.383u      0.000s      0.224w      1 calls
| SAD Guess                         :      0.350u      0.000s      0.210w      1 calls
HF: Form G                          :      0.000u      0.000s      0.003w     13 calls
| JK: D                             :      0.000u      0.000s      0.000w     13 calls
| JK: USO2AO                        :      0.000u      0.000s      0.000w     13 calls
| JK: JK                            :      0.000u      0.000s      0.002w     13 calls
| | PK computes JK                  :      0.000u      0.000s      0.002w     13 calls
| JK: AO2USO                        :      0.000u      0.000s      0.000w     13 calls
HF: Form F                          :      0.000u      0.000s      0.000w     13 calls
HF: Form D                          :      0.000u      0.000s      0.000w     13 calls
HF: DIIS                            :      0.017u      0.017s      0.009w     12 calls
| DIISManager::add_entry            :      0.000u      0.017s      0.001w     12 calls
| DIISManager::extrapolate          :      0.017u      0.000s      0.002w     12 calls
| | bMatrix setup                   :      0.000u      0.000s      0.001w     12 calls
| | bMatrix pseudoinverse           :      0.017u      0.000s      0.001w     12 calls
| | New vector                      :      0.000u      0.000s      0.000w     12 calls
HF: Form C                          :      0.000u      0.000s      0.001w     12 calls

**************************************************************************************

Host: penguin

Timers On : Sun Jan 12 20:57:30 2020
Timers Off: Sun Jan 12 20:57:58 2020

Wall Time:       27.87 seconds

                                                       Time (seconds)
Module                                       User      System        Wall        Calls
Total PK formation time             :      0.100u      0.000s      0.059w      1 calls
HF: Form core H                     :      0.000u      0.000s      0.001w      1 calls
HF: Form S/X                        :      0.000u      0.000s      0.000w      1 calls
HF: Guess                           :      0.317u      0.017s      0.197w      1 calls
SAD Guess                           :      0.300u      0.017s      0.185w      1 calls
HF: Form G                          :      0.000u      0.000s      0.002w     13 calls
JK: D                               :      0.000u      0.000s      0.000w     13 calls
JK: USO2AO                          :      0.000u      0.000s      0.000w     13 calls
JK: JK                              :      0.000u      0.000s      0.001w     13 calls
PK computes JK                      :      0.000u      0.000s      0.001w     13 calls
JK: AO2USO                          :      0.000u      0.000s      0.000w     13 calls
HF: Form F                          :      0.000u      0.000s      0.000w     13 calls
HF: Form D                          :      0.000u      0.000s      0.000w     13 calls
HF: DIIS                            :      0.017u      0.000s      0.009w     12 calls
DIISManager::add_entry              :      0.000u      0.000s      0.001w     12 calls
DIISManager::extrapolate            :      0.017u      0.000s      0.002w     12 calls
bMatrix setup                       :      0.017u      0.000s      0.001w     12 calls
bMatrix pseudoinverse               :      0.000u      0.000s      0.001w     12 calls
New vector                          :      0.000u      0.000s      0.000w     12 calls
HF: Form C                          :      0.000u      0.000s      0.001w     12 calls

--------------------------------------------------------------------------------------
Total PK formation time             :      0.100u      0.000s      0.059w      1 calls
HF: Form core H                     :      0.000u      0.000s      0.001w      1 calls
HF: Form S/X                        :      0.000u      0.000s      0.000w      1 calls
HF: Guess                           :      0.317u      0.017s      0.197w      1 calls
| SAD Guess                         :      0.300u      0.017s      0.185w      1 calls
HF: Form G                          :      0.000u      0.000s      0.002w     13 calls
| JK: D                             :      0.000u      0.000s      0.000w     13 calls
| JK: USO2AO                        :      0.000u      0.000s      0.000w     13 calls
| JK: JK                            :      0.000u      0.000s      0.001w     13 calls
| | PK computes JK                  :      0.000u      0.000s      0.001w     13 calls
| JK: AO2USO                        :      0.000u      0.000s      0.000w     13 calls
HF: Form F                          :      0.000u      0.000s      0.000w     13 calls
HF: Form D                          :      0.000u      0.000s      0.000w     13 calls
HF: DIIS                            :      0.017u      0.000s      0.009w     12 calls
| DIISManager::add_entry            :      0.000u      0.000s      0.001w     12 calls
| DIISManager::extrapolate          :      0.017u      0.000s      0.002w     12 calls
| | bMatrix setup                   :      0.017u      0.000s      0.001w     12 calls
| | bMatrix pseudoinverse           :      0.000u      0.000s      0.001w     12 calls
| | New vector                      :      0.000u      0.000s      0.000w     12 calls
HF: Form C                          :      0.000u      0.000s      0.001w     12 calls

**************************************************************************************

Host: penguin

Timers On : Sun Jan 12 21:00:08 2020
Timers Off: Sun Jan 12 21:00:19 2020

Wall Time:       10.88 seconds

                                                       Time (seconds)
Module                                       User      System        Wall        Calls
Total PK formation time             :      0.100u      0.000s      0.057w      1 calls
HF: Form core H                     :      0.000u      0.000s      0.003w      1 calls
HF: Form S/X                        :      0.000u      0.000s      0.000w      1 calls
HF: Guess                           :      0.350u      0.000s      0.209w      1 calls
SAD Guess                           :      0.333u      0.000s      0.196w      1 calls
HF: Form G                          :      0.000u      0.000s      0.002w     13 calls
JK: D                               :      0.000u      0.000s      0.000w     13 calls
JK: USO2AO                          :      0.000u      0.000s      0.000w     13 calls
JK: JK                              :      0.000u      0.000s      0.001w     13 calls
PK computes JK                      :      0.000u      0.000s      0.001w     13 calls
JK: AO2USO                          :      0.000u      0.000s      0.000w     13 calls
HF: Form F                          :      0.000u      0.000s      0.000w     13 calls
HF: Form D                          :      0.000u      0.000s      0.000w     13 calls
HF: DIIS                            :      0.000u      0.017s      0.009w     12 calls
DIISManager::add_entry              :      0.000u      0.017s      0.001w     12 calls
DIISManager::extrapolate            :      0.000u      0.000s      0.002w     12 calls
bMatrix setup                       :      0.000u      0.000s      0.001w     12 calls
bMatrix pseudoinverse               :      0.000u      0.000s      0.000w     12 calls
New vector                          :      0.000u      0.000s      0.001w     12 calls
HF: Form C                          :      0.000u      0.000s      0.001w     12 calls

--------------------------------------------------------------------------------------
Total PK formation time             :      0.100u      0.000s      0.057w      1 calls
HF: Form core H                     :      0.000u      0.000s      0.003w      1 calls
HF: Form S/X                        :      0.000u      0.000s      0.000w      1 calls
HF: Guess                           :      0.350u      0.000s      0.209w      1 calls
| SAD Guess                         :      0.333u      0.000s      0.196w      1 calls
HF: Form G                          :      0.000u      0.000s      0.002w     13 calls
| JK: D                             :      0.000u      0.000s      0.000w     13 calls
| JK: USO2AO                        :      0.000u      0.000s      0.000w     13 calls
| JK: JK                            :      0.000u      0.000s      0.001w     13 calls
| | PK computes JK                  :      0.000u      0.000s      0.001w     13 calls
| JK: AO2USO                        :      0.000u      0.000s      0.000w     13 calls
HF: Form F                          :      0.000u      0.000s      0.000w     13 calls
HF: Form D                          :      0.000u      0.000s      0.000w     13 calls
HF: DIIS                            :      0.000u      0.017s      0.009w     12 calls
| DIISManager::add_entry            :      0.000u      0.017s      0.001w     12 calls
| DIISManager::extrapolate          :      0.000u      0.000s      0.002w     12 calls
| | bMatrix setup                   :      0.000u      0.000s      0.001w     12 calls
| | bMatrix pseudoinverse           :      0.000u      0.000s      0.000w     12 calls
| | New vector                      :      0.000u      0.000s      0.001w     12 calls
HF: Form C                          :      0.000u      0.000s      0.001w     12 calls

**************************************************************************************

Host: penguin

Timers On : Sun Jan 12 21:00:46 2020
Timers Off: Sun Jan 12 21:01:14 2020

Wall Time:       28.37 seconds

                                                       Time (seconds)
Module                                       User      System        Wall        Calls
Total PK formation time             :      0.100u      0.000s      0.055w      1 calls
HF: Form core H                     :      0.000u      0.000s      0.001w      1 calls
HF: Form S/X                        :      0.000u      0.000s      0.000w      1 calls
HF: Guess                           :      0.317u      0.000s      0.195w      1 calls
SAD Guess                           :      0.300u      0.000s      0.183w      1 calls
HF: Form G                          :      0.000u      0.000s      0.002w     13 calls
JK: D                               :      0.000u      0.000s      0.000w     13 calls
JK: USO2AO                          :      0.000u      0.000s      0.000w     13 calls
JK: JK                              :      0.000u      0.000s      0.001w     13 calls
PK computes JK                      :      0.000u      0.000s      0.001w     13 calls
JK: AO2USO                          :      0.000u      0.000s      0.000w     13 calls
HF: Form F                          :      0.000u      0.000s      0.000w     13 calls
HF: Form D                          :      0.000u      0.000s      0.000w     13 calls
HF: DIIS                            :      0.017u      0.000s      0.009w     12 calls
DIISManager::add_entry              :      0.000u      0.000s      0.001w     12 calls
DIISManager::extrapolate            :      0.000u      0.000s      0.002w     12 calls
bMatrix setup                       :      0.000u      0.000s      0.001w     12 calls
bMatrix pseudoinverse               :      0.000u      0.000s      0.000w     12 calls
New vector                          :      0.000u      0.000s      0.000w     12 calls
HF: Form C                          :      0.000u      0.000s      0.001w     12 calls

--------------------------------------------------------------------------------------
Total PK formation time             :      0.100u      0.000s      0.055w      1 calls
HF: Form core H                     :      0.000u      0.000s      0.001w      1 calls
HF: Form S/X                        :      0.000u      0.000s      0.000w      1 calls
HF: Guess                           :      0.317u      0.000s      0.195w      1 calls
| SAD Guess                         :      0.300u      0.000s      0.183w      1 calls
HF: Form G                          :      0.000u      0.000s      0.002w     13 calls
| JK: D                             :      0.000u      0.000s      0.000w     13 calls
| JK: USO2AO                        :      0.000u      0.000s      0.000w     13 calls
| JK: JK                            :      0.000u      0.000s      0.001w     13 calls
| | PK computes JK                  :      0.000u      0.000s      0.001w     13 calls
| JK: AO2USO                        :      0.000u      0.000s      0.000w     13 calls
HF: Form F                          :      0.000u      0.000s      0.000w     13 calls
HF: Form D                          :      0.000u      0.000s      0.000w     13 calls
HF: DIIS                            :      0.017u      0.000s      0.009w     12 calls
| DIISManager::add_entry            :      0.000u      0.000s      0.001w     12 calls
| DIISManager::extrapolate          :      0.000u      0.000s      0.002w     12 calls
| | bMatrix setup                   :      0.000u      0.000s      0.001w     12 calls
| | bMatrix pseudoinverse           :      0.000u      0.000s      0.000w     12 calls
| | New vector                      :      0.000u      0.000s      0.000w     12 calls
HF: Form C                          :      0.000u      0.000s      0.001w     12 calls

**************************************************************************************

Host: penguin

Timers On : Sun Jan 12 21:04:55 2020
Timers Off: Sun Jan 12 21:05:24 2020

Wall Time:       28.96 seconds

                                                       Time (seconds)
Module                                       User      System        Wall        Calls
Total PK formation time             :      0.083u      0.017s      0.058w      1 calls
HF: Form core H                     :      0.000u      0.000s      0.002w      1 calls
HF: Form S/X                        :      0.000u      0.000s      0.000w      1 calls
HF: Guess                           :      0.350u      0.000s      0.216w      1 calls
SAD Guess                           :      0.333u      0.000s      0.203w      1 calls
HF: Form G                          :      0.000u      0.000s      0.002w     13 calls
JK: D                               :      0.000u      0.000s      0.000w     13 calls
JK: USO2AO                          :      0.000u      0.000s      0.000w     13 calls
JK: JK                              :      0.000u      0.000s      0.002w     13 calls
PK computes JK                      :      0.000u      0.000s      0.002w     13 calls
JK: AO2USO                          :      0.000u      0.000s      0.000w     13 calls
HF: Form F                          :      0.000u      0.000s      0.000w     13 calls
HF: Form D                          :      0.000u      0.000s      0.000w     13 calls
HF: DIIS                            :      0.017u      0.000s      0.009w     12 calls
DIISManager::add_entry              :      0.000u      0.000s      0.001w     12 calls
DIISManager::extrapolate            :      0.017u      0.000s      0.002w     12 calls
bMatrix setup                       :      0.017u      0.000s      0.001w     12 calls
bMatrix pseudoinverse               :      0.000u      0.000s      0.001w     12 calls
New vector                          :      0.000u      0.000s      0.000w     12 calls
HF: Form C                          :      0.017u      0.000s      0.001w     12 calls

--------------------------------------------------------------------------------------
Total PK formation time             :      0.083u      0.017s      0.058w      1 calls
HF: Form core H                     :      0.000u      0.000s      0.002w      1 calls
HF: Form S/X                        :      0.000u      0.000s      0.000w      1 calls
HF: Guess                           :      0.350u      0.000s      0.216w      1 calls
| SAD Guess                         :      0.333u      0.000s      0.203w      1 calls
HF: Form G                          :      0.000u      0.000s      0.002w     13 calls
| JK: D                             :      0.000u      0.000s      0.000w     13 calls
| JK: USO2AO                        :      0.000u      0.000s      0.000w     13 calls
| JK: JK                            :      0.000u      0.000s      0.002w     13 calls
| | PK computes JK                  :      0.000u      0.000s      0.002w     13 calls
| JK: AO2USO                        :      0.000u      0.000s      0.000w     13 calls
HF: Form F                          :      0.000u      0.000s      0.000w     13 calls
HF: Form D                          :      0.000u      0.000s      0.000w     13 calls
HF: DIIS                            :      0.017u      0.000s      0.009w     12 calls
| DIISManager::add_entry            :      0.000u      0.000s      0.001w     12 calls
| DIISManager::extrapolate          :      0.017u      0.000s      0.002w     12 calls
| | bMatrix setup                   :      0.017u      0.000s      0.001w     12 calls
| | bMatrix pseudoinverse           :      0.000u      0.000s      0.001w     12 calls
| | New vector                      :      0.000u      0.000s      0.000w     12 calls
HF: Form C                          :      0.017u      0.000s      0.001w     12 calls

**************************************************************************************

Host: penguin

Timers On : Sun Jan 12 21:06:16 2020
Timers Off: Sun Jan 12 21:06:45 2020

Wall Time:       28.89 seconds

                                                       Time (seconds)
Module                                       User      System        Wall        Calls
Total PK formation time             :      0.083u      0.017s      0.055w      1 calls
HF: Form core H                     :      0.000u      0.000s      0.001w      1 calls
HF: Form S/X                        :      0.000u      0.000s      0.001w      1 calls
HF: Guess                           :      0.317u      0.000s      0.192w      1 calls
SAD Guess                           :      0.300u      0.000s      0.180w      1 calls
HF: Form G                          :      0.000u      0.000s      0.002w     13 calls
JK: D                               :      0.000u      0.000s      0.000w     13 calls
JK: USO2AO                          :      0.000u      0.000s      0.000w     13 calls
JK: JK                              :      0.000u      0.000s      0.001w     13 calls
PK computes JK                      :      0.000u      0.000s      0.001w     13 calls
JK: AO2USO                          :      0.000u      0.000s      0.000w     13 calls
HF: Form F                          :      0.000u      0.000s      0.000w     13 calls
HF: Form D                          :      0.000u      0.000s      0.000w     13 calls
HF: DIIS                            :      0.017u      0.000s      0.008w     12 calls
DIISManager::add_entry              :      0.000u      0.000s      0.001w     12 calls
DIISManager::extrapolate            :      0.017u      0.000s      0.002w     12 calls
bMatrix setup                       :      0.000u      0.000s      0.001w     12 calls
bMatrix pseudoinverse               :      0.017u      0.000s      0.000w     12 calls
New vector                          :      0.000u      0.000s      0.000w     12 calls
HF: Form C                          :      0.000u      0.000s      0.001w     12 calls

--------------------------------------------------------------------------------------
Total PK formation time             :      0.083u      0.017s      0.055w      1 calls
HF: Form core H                     :      0.000u      0.000s      0.001w      1 calls
HF: Form S/X                        :      0.000u      0.000s      0.001w      1 calls
HF: Guess                           :      0.317u      0.000s      0.192w      1 calls
| SAD Guess                         :      0.300u      0.000s      0.180w      1 calls
HF: Form G                          :      0.000u      0.000s      0.002w     13 calls
| JK: D                             :      0.000u      0.000s      0.000w     13 calls
| JK: USO2AO                        :      0.000u      0.000s      0.000w     13 calls
| JK: JK                            :      0.000u      0.000s      0.001w     13 calls
| | PK computes JK                  :      0.000u      0.000s      0.001w     13 calls
| JK: AO2USO                        :      0.000u      0.000s      0.000w     13 calls
HF: Form F                          :      0.000u      0.000s      0.000w     13 calls
HF: Form D                          :      0.000u      0.000s      0.000w     13 calls
HF: DIIS                            :      0.017u      0.000s      0.008w     12 calls
| DIISManager::add_entry            :      0.000u      0.000s      0.001w     12 calls
| DIISManager::extrapolate          :      0.017u      0.000s      0.002w     12 calls
| | bMatrix setup                   :      0.000u      0.000s      0.001w     12 calls
| | bMatrix pseudoinverse           :      0.017u      0.000s      0.000w     12 calls
| | New vector                      :      0.000u      0.000s      0.000w     12 calls
HF: Form C                          :      0.000u      0.000s      0.001w     12 calls

**************************************************************************************

Host: davis-ws

Timers On : Mon Jan 13 14:13:04 2020
Timers Off: Mon Jan 13 14:14:44 2020

Wall Time:       99.45 seconds

                                                       Time (seconds)
Module                                       User      System        Wall        Calls
Total PK formation time             :      0.117u      0.000s      0.071w      2 calls
HF: Form core H                     :      0.000u      0.000s      0.001w      2 calls
HF: Form S/X                        :      0.000u      0.000s      0.000w      2 calls
HF: Guess                           :      0.417u      0.017s      0.250w      2 calls
SAD Guess                           :      0.383u      0.000s      0.234w      2 calls
HF: Form G                          :      0.000u      0.000s      0.002w     29 calls
JK: D                               :      0.000u      0.000s      0.000w     29 calls
JK: USO2AO                          :      0.000u      0.000s      0.000w     29 calls
JK: JK                              :      0.000u      0.000s      0.002w     29 calls
PK computes JK                      :      0.000u      0.000s      0.002w     29 calls
JK: AO2USO                          :      0.000u      0.000s      0.000w     29 calls
HF: Form F                          :      0.000u      0.000s      0.000w     29 calls
HF: Form D                          :      0.000u      0.000s      0.000w     29 calls
HF: DIIS                            :      0.033u      0.000s      0.011w     27 calls
DIISManager::add_entry              :      0.000u      0.000s      0.001w     27 calls
DIISManager::extrapolate            :      0.033u      0.000s      0.002w     27 calls
bMatrix setup                       :      0.017u      0.000s      0.001w     27 calls
bMatrix pseudoinverse               :      0.000u      0.000s      0.001w     27 calls
New vector                          :      0.017u      0.000s      0.001w     27 calls
HF: Form C                          :      0.000u      0.000s      0.002w     27 calls

--------------------------------------------------------------------------------------
Total PK formation time             :      0.117u      0.000s      0.071w      2 calls
HF: Form core H                     :      0.000u      0.000s      0.001w      2 calls
HF: Form S/X                        :      0.000u      0.000s      0.000w      2 calls
HF: Guess                           :      0.417u      0.017s      0.250w      2 calls
| SAD Guess                         :      0.383u      0.000s      0.234w      2 calls
HF: Form G                          :      0.000u      0.000s      0.002w     29 calls
| JK: D                             :      0.000u      0.000s      0.000w     29 calls
| JK: USO2AO                        :      0.000u      0.000s      0.000w     29 calls
| JK: JK                            :      0.000u      0.000s      0.002w     29 calls
| | PK computes JK                  :      0.000u      0.000s      0.002w     29 calls
| JK: AO2USO                        :      0.000u      0.000s      0.000w     29 calls
HF: Form F                          :      0.000u      0.000s      0.000w     29 calls
HF: Form D                          :      0.000u      0.000s      0.000w     29 calls
HF: DIIS                            :      0.033u      0.000s      0.011w     27 calls
| DIISManager::add_entry            :      0.000u      0.000s      0.001w     27 calls
| DIISManager::extrapolate          :      0.033u      0.000s      0.002w     27 calls
| | bMatrix setup                   :      0.017u      0.000s      0.001w     27 calls
| | bMatrix pseudoinverse           :      0.000u      0.000s      0.001w     27 calls
| | New vector                      :      0.017u      0.000s      0.001w     27 calls
HF: Form C                          :      0.000u      0.000s      0.002w     27 calls

**************************************************************************************

Host: davis-ws

Timers On : Mon Jan 13 14:17:59 2020
Timers Off: Mon Jan 13 14:18:27 2020

Wall Time:       28.01 seconds

                                                       Time (seconds)
Module                                       User      System        Wall        Calls
Total PK formation time             :      0.100u      0.000s      0.070w      2 calls
HF: Form core H                     :      0.017u      0.000s      0.001w      2 calls
HF: Form S/X                        :      0.017u      0.000s      0.000w      2 calls
HF: Guess                           :      0.400u      0.000s      0.249w      2 calls
SAD Guess                           :      0.400u      0.000s      0.233w      2 calls
HF: Form G                          :      0.033u      0.000s      0.002w     29 calls
JK: D                               :      0.000u      0.000s      0.000w     29 calls
JK: USO2AO                          :      0.000u      0.000s      0.000w     29 calls
JK: JK                              :      0.000u      0.000s      0.002w     29 calls
PK computes JK                      :      0.000u      0.000s      0.002w     29 calls
JK: AO2USO                          :      0.000u      0.000s      0.000w     29 calls
HF: Form F                          :      0.000u      0.000s      0.000w     29 calls
HF: Form D                          :      0.000u      0.000s      0.000w     29 calls
HF: DIIS                            :      0.017u      0.000s      0.011w     27 calls
DIISManager::add_entry              :      0.000u      0.000s      0.001w     27 calls
DIISManager::extrapolate            :      0.017u      0.000s      0.002w     27 calls
bMatrix setup                       :      0.017u      0.000s      0.001w     27 calls
bMatrix pseudoinverse               :      0.000u      0.000s      0.001w     27 calls
New vector                          :      0.000u      0.000s      0.001w     27 calls
HF: Form C                          :      0.000u      0.000s      0.002w     27 calls

--------------------------------------------------------------------------------------
Total PK formation time             :      0.100u      0.000s      0.070w      2 calls
HF: Form core H                     :      0.017u      0.000s      0.001w      2 calls
HF: Form S/X                        :      0.017u      0.000s      0.000w      2 calls
HF: Guess                           :      0.400u      0.000s      0.249w      2 calls
| SAD Guess                         :      0.400u      0.000s      0.233w      2 calls
HF: Form G                          :      0.033u      0.000s      0.002w     29 calls
| JK: D                             :      0.000u      0.000s      0.000w     29 calls
| JK: USO2AO                        :      0.000u      0.000s      0.000w     29 calls
| JK: JK                            :      0.000u      0.000s      0.002w     29 calls
| | PK computes JK                  :      0.000u      0.000s      0.002w     29 calls
| JK: AO2USO                        :      0.000u      0.000s      0.000w     29 calls
HF: Form F                          :      0.000u      0.000s      0.000w     29 calls
HF: Form D                          :      0.000u      0.000s      0.000w     29 calls
HF: DIIS                            :      0.017u      0.000s      0.011w     27 calls
| DIISManager::add_entry            :      0.000u      0.000s      0.001w     27 calls
| DIISManager::extrapolate          :      0.017u      0.000s      0.002w     27 calls
| | bMatrix setup                   :      0.017u      0.000s      0.001w     27 calls
| | bMatrix pseudoinverse           :      0.000u      0.000s      0.001w     27 calls
| | New vector                      :      0.000u      0.000s      0.001w     27 calls
HF: Form C                          :      0.000u      0.000s      0.002w     27 calls

**************************************************************************************

Host: davis-ws

Timers On : Mon Jan 13 14:18:54 2020
Timers Off: Mon Jan 13 14:19:50 2020

Wall Time:       56.12 seconds

                                                       Time (seconds)
Module                                       User      System        Wall        Calls
Total PK formation time             :      0.100u      0.000s      0.069w      2 calls
HF: Form core H                     :      0.017u      0.000s      0.001w      2 calls
HF: Form S/X                        :      0.000u      0.000s      0.000w      2 calls
HF: Guess                           :      0.417u      0.000s      0.246w      2 calls
SAD Guess                           :      0.400u      0.000s      0.231w      2 calls
HF: Form G                          :      0.000u      0.000s      0.002w     29 calls
JK: D                               :      0.000u      0.000s      0.000w     29 calls
JK: USO2AO                          :      0.000u      0.000s      0.000w     29 calls
JK: JK                              :      0.000u      0.000s      0.002w     29 calls
PK computes JK                      :      0.000u      0.000s      0.002w     29 calls
JK: AO2USO                          :      0.000u      0.000s      0.000w     29 calls
HF: Form F                          :      0.000u      0.000s      0.000w     29 calls
HF: Form D                          :      0.000u      0.000s      0.000w     29 calls
HF: DIIS                            :      0.017u      0.000s      0.011w     27 calls
DIISManager::add_entry              :      0.000u      0.000s      0.001w     27 calls
DIISManager::extrapolate            :      0.017u      0.000s      0.002w     27 calls
bMatrix setup                       :      0.017u      0.000s      0.001w     27 calls
bMatrix pseudoinverse               :      0.000u      0.000s      0.001w     27 calls
New vector                          :      0.000u      0.000s      0.001w     27 calls
HF: Form C                          :      0.017u      0.000s      0.002w     27 calls

--------------------------------------------------------------------------------------
Total PK formation time             :      0.100u      0.000s      0.069w      2 calls
HF: Form core H                     :      0.017u      0.000s      0.001w      2 calls
HF: Form S/X                        :      0.000u      0.000s      0.000w      2 calls
HF: Guess                           :      0.417u      0.000s      0.246w      2 calls
| SAD Guess                         :      0.400u      0.000s      0.231w      2 calls
HF: Form G                          :      0.000u      0.000s      0.002w     29 calls
| JK: D                             :      0.000u      0.000s      0.000w     29 calls
| JK: USO2AO                        :      0.000u      0.000s      0.000w     29 calls
| JK: JK                            :      0.000u      0.000s      0.002w     29 calls
| | PK computes JK                  :      0.000u      0.000s      0.002w     29 calls
| JK: AO2USO                        :      0.000u      0.000s      0.000w     29 calls
HF: Form F                          :      0.000u      0.000s      0.000w     29 calls
HF: Form D                          :      0.000u      0.000s      0.000w     29 calls
HF: DIIS                            :      0.017u      0.000s      0.011w     27 calls
| DIISManager::add_entry            :      0.000u      0.000s      0.001w     27 calls
| DIISManager::extrapolate          :      0.017u      0.000s      0.002w     27 calls
| | bMatrix setup                   :      0.017u      0.000s      0.001w     27 calls
| | bMatrix pseudoinverse           :      0.000u      0.000s      0.001w     27 calls
| | New vector                      :      0.000u      0.000s      0.001w     27 calls
HF: Form C                          :      0.017u      0.000s      0.002w     27 calls

**************************************************************************************

Host: davis-ws

Timers On : Mon Jan 13 14:26:41 2020
Timers Off: Mon Jan 13 14:26:49 2020

Wall Time:        7.93 seconds

                                                       Time (seconds)
Module                                       User      System        Wall        Calls
Total PK formation time             :      0.050u      0.000s      0.033w      1 calls
HF: Form core H                     :      0.000u      0.000s      0.000w      1 calls
HF: Form S/X                        :      0.000u      0.000s      0.000w      1 calls
HF: Guess                           :      0.200u      0.000s      0.121w      1 calls
SAD Guess                           :      0.183u      0.000s      0.113w      1 calls
HF: Form G                          :      0.017u      0.000s      0.001w     13 calls
JK: D                               :      0.000u      0.000s      0.000w     13 calls
JK: USO2AO                          :      0.000u      0.000s      0.000w     13 calls
JK: JK                              :      0.017u      0.000s      0.001w     13 calls
PK computes JK                      :      0.000u      0.000s      0.001w     13 calls
JK: AO2USO                          :      0.000u      0.000s      0.000w     13 calls
HF: Form F                          :      0.000u      0.000s      0.000w     13 calls
HF: Form D                          :      0.000u      0.000s      0.000w     13 calls
HF: DIIS                            :      0.000u      0.000s      0.005w     12 calls
DIISManager::add_entry              :      0.000u      0.000s      0.000w     12 calls
DIISManager::extrapolate            :      0.000u      0.000s      0.001w     12 calls
bMatrix setup                       :      0.000u      0.000s      0.000w     12 calls
bMatrix pseudoinverse               :      0.000u      0.000s      0.000w     12 calls
New vector                          :      0.000u      0.000s      0.000w     12 calls
HF: Form C                          :      0.000u      0.000s      0.001w     12 calls

--------------------------------------------------------------------------------------
Total PK formation time             :      0.050u      0.000s      0.033w      1 calls
HF: Form core H                     :      0.000u      0.000s      0.000w      1 calls
HF: Form S/X                        :      0.000u      0.000s      0.000w      1 calls
HF: Guess                           :      0.200u      0.000s      0.121w      1 calls
| SAD Guess                         :      0.183u      0.000s      0.113w      1 calls
HF: Form G                          :      0.017u      0.000s      0.001w     13 calls
| JK: D                             :      0.000u      0.000s      0.000w     13 calls
| JK: USO2AO                        :      0.000u      0.000s      0.000w     13 calls
| JK: JK                            :      0.017u      0.000s      0.001w     13 calls
| | PK computes JK                  :      0.000u      0.000s      0.001w     13 calls
| JK: AO2USO                        :      0.000u      0.000s      0.000w     13 calls
HF: Form F                          :      0.000u      0.000s      0.000w     13 calls
HF: Form D                          :      0.000u      0.000s      0.000w     13 calls
HF: DIIS                            :      0.000u      0.000s      0.005w     12 calls
| DIISManager::add_entry            :      0.000u      0.000s      0.000w     12 calls
| DIISManager::extrapolate          :      0.000u      0.000s      0.001w     12 calls
| | bMatrix setup                   :      0.000u      0.000s      0.000w     12 calls
| | bMatrix pseudoinverse           :      0.000u      0.000s      0.000w     12 calls
| | New vector                      :      0.000u      0.000s      0.000w     12 calls
HF: Form C                          :      0.000u      0.000s      0.001w     12 calls

**************************************************************************************

Host: davis-ws

Timers On : Mon Jan 13 14:26:44 2020
Timers Off: Mon Jan 13 14:26:49 2020

Wall Time:        4.68 seconds

                                                       Time (seconds)
Module                                       User      System        Wall        Calls

--------------------------------------------------------------------------------------

**************************************************************************************

Host: davis-ws

Timers On : Mon Jan 13 14:26:44 2020
Timers Off: Mon Jan 13 14:26:49 2020

Wall Time:        4.53 seconds

                                                       Time (seconds)
Module                                       User      System        Wall        Calls

--------------------------------------------------------------------------------------

**************************************************************************************



Host: davis-ws
Host: davis-ws

Host: davis-ws


Timers On : Mon Jan 13 14:26:44 2020
Timers On : Mon Jan 13 14:26:44 2020
Timers On : Mon Jan 13 14:26:44 2020
Timers Off: Mon Jan 13 14:26:49 2020
Timers Off: Mon Jan 13 14:26:49 2020
Timers Off: Mon Jan 13 14:26:49 2020

Wall Time:        4.69 seconds


Wall Time:        4.68 seconds

                                                       Time (seconds)

Wall Time:        4.72 seconds

                                                       Time (seconds)
Module                                       User      System        Wall        Calls
                                                       Time (seconds)
Module                                       User      System        Wall        Calls

--------------------------------------------------------------------------------------
Module                                       User      System        Wall        Calls

--------------------------------------------------------------------------------------

**************************************************************************************

--------------------------------------------------------------------------------------

**************************************************************************************

**************************************************************************************

Host: davis-ws

Timers On : Mon Jan 13 14:26:44 2020
Timers Off: Mon Jan 13 14:26:49 2020

Wall Time:        4.64 seconds

                                                       Time (seconds)
Module                                       User      System        Wall        Calls

--------------------------------------------------------------------------------------

**************************************************************************************

Host: davis-ws

Timers On : Mon Jan 13 14:27:34 2020
Timers Off: Mon Jan 13 14:27:42 2020

Wall Time:        8.09 seconds

                                                       Time (seconds)
Module                                       User      System        Wall        Calls
Total PK formation time             :      0.050u      0.000s      0.033w      1 calls
HF: Form core H                     :      0.000u      0.000s      0.001w      1 calls
HF: Form S/X                        :      0.000u      0.000s      0.000w      1 calls
HF: Guess                           :      0.200u      0.000s      0.119w      1 calls
SAD Guess                           :      0.183u      0.000s      0.111w      1 calls
HF: Form G                          :      0.000u      0.000s      0.001w     13 calls
JK: D                               :      0.000u      0.000s      0.000w     13 calls
JK: USO2AO                          :      0.000u      0.000s      0.000w     13 calls
JK: JK                              :      0.000u      0.000s      0.001w     13 calls
PK computes JK                      :      0.000u      0.000s      0.001w     13 calls
JK: AO2USO                          :      0.000u      0.000s      0.000w     13 calls
HF: Form F                          :      0.000u      0.000s      0.000w     13 calls
HF: Form D                          :      0.000u      0.000s      0.000w     13 calls
HF: DIIS                            :      0.000u      0.000s      0.005w     12 calls
DIISManager::add_entry              :      0.000u      0.000s      0.000w     12 calls
DIISManager::extrapolate            :      0.000u      0.000s      0.001w     12 calls
bMatrix setup                       :      0.000u      0.000s      0.000w     12 calls
bMatrix pseudoinverse               :      0.000u      0.000s      0.000w     12 calls
New vector                          :      0.000u      0.000s      0.000w     12 calls
HF: Form C                          :      0.000u      0.000s      0.001w     12 calls

--------------------------------------------------------------------------------------
Total PK formation time             :      0.050u      0.000s      0.033w      1 calls
HF: Form core H                     :      0.000u      0.000s      0.001w      1 calls
HF: Form S/X                        :      0.000u      0.000s      0.000w      1 calls
HF: Guess                           :      0.200u      0.000s      0.119w      1 calls
| SAD Guess                         :      0.183u      0.000s      0.111w      1 calls
HF: Form G                          :      0.000u      0.000s      0.001w     13 calls
| JK: D                             :      0.000u      0.000s      0.000w     13 calls
| JK: USO2AO                        :      0.000u      0.000s      0.000w     13 calls
| JK: JK                            :      0.000u      0.000s      0.001w     13 calls
| | PK computes JK                  :      0.000u      0.000s      0.001w     13 calls
| JK: AO2USO                        :      0.000u      0.000s      0.000w     13 calls
HF: Form F                          :      0.000u      0.000s      0.000w     13 calls
HF: Form D                          :      0.000u      0.000s      0.000w     13 calls
HF: DIIS                            :      0.000u      0.000s      0.005w     12 calls
| DIISManager::add_entry            :      0.000u      0.000s      0.000w     12 calls
| DIISManager::extrapolate          :      0.000u      0.000s      0.001w     12 calls
| | bMatrix setup                   :      0.000u      0.000s      0.000w     12 calls
| | bMatrix pseudoinverse           :      0.000u      0.000s      0.000w     12 calls
| | New vector                      :      0.000u      0.000s      0.000w     12 calls
HF: Form C                          :      0.000u      0.000s      0.001w     12 calls

**************************************************************************************


Host: davis-ws

Host: davis-ws

Timers On : Mon Jan 13 14:27:38 2020
Timers On : Mon Jan 13 14:27:38 2020
Timers Off: Mon Jan 13 14:27:42 2020
Timers Off: Mon Jan 13 14:27:42 2020

Wall Time:        4.73 seconds


Wall Time:        4.64 seconds

                                                       Time (seconds)
                                                       Time (seconds)
Module                                       User      System        Wall        Calls
Module                                       User      System        Wall        Calls

--------------------------------------------------------------------------------------

--------------------------------------------------------------------------------------

**************************************************************************************

**************************************************************************************

Host: davis-ws

Timers On : Mon Jan 13 14:27:38 2020
Timers Off: Mon Jan 13 14:27:42 2020

Wall Time:        4.68 seconds

                                                       Time (seconds)
Module                                       User      System        Wall        Calls

--------------------------------------------------------------------------------------

**************************************************************************************

Host: davis-ws

Timers On : Mon Jan 13 14:27:38 2020
Timers Off: Mon Jan 13 14:27:42 2020

Wall Time:        4.70 seconds

                                                       Time (seconds)
Module                                       User      System        Wall        Calls

--------------------------------------------------------------------------------------

**************************************************************************************

Host: davis-ws


Host: davis-ws

Timers On : Mon Jan 13 14:27:38 2020
Timers Off: Mon Jan 13 14:27:42 2020
Timers On : Mon Jan 13 14:27:38 2020
Timers Off: Mon Jan 13 14:27:42 2020

Wall Time:        4.74 seconds

                                                       Time (seconds)

Wall Time:        4.70 seconds

Module                                       User      System        Wall        Calls
                                                       Time (seconds)

--------------------------------------------------------------------------------------
Module                                       User      System        Wall        Calls

**************************************************************************************

--------------------------------------------------------------------------------------

**************************************************************************************

Host: davis-ws

Timers On : Mon Jan 13 14:30:02 2020
Timers Off: Mon Jan 13 14:31:21 2020

Wall Time:       79.20 seconds

                                                       Time (seconds)
Module                                       User      System        Wall        Calls

--------------------------------------------------------------------------------------

**************************************************************************************

Host: davis-ws

Timers On : Mon Jan 13 14:30:02 2020
Timers Off: Mon Jan 13 14:31:21 2020

Wall Time:       79.17 seconds

                                                       Time (seconds)
Module                                       User      System        Wall        Calls

--------------------------------------------------------------------------------------

**************************************************************************************


Host: davis-ws

Host: davis-ws

Timers On : Mon Jan 13 14:30:02 2020
Timers On : Mon Jan 13 14:30:02 2020
Timers Off: Mon Jan 13 14:31:21 2020
Timers Off: Mon Jan 13 14:31:21 2020

Wall Time:       79.15 seconds


Wall Time:       79.15 seconds

                                                       Time (seconds)
                                                       Time (seconds)
Module                                       User      System        Wall        Calls
Module                                       User      System        Wall        Calls

--------------------------------------------------------------------------------------

--------------------------------------------------------------------------------------

**************************************************************************************

**************************************************************************************


Host: davis-ws

Host: davis-ws

Timers On : Mon Jan 13 14:30:02 2020
Timers On : Mon Jan 13 14:30:02 2020
Timers Off: Mon Jan 13 14:31:21 2020
Timers Off: Mon Jan 13 14:31:21 2020

Wall Time:       79.24 seconds


Wall Time:       79.19 seconds

                                                       Time (seconds)
                                                       Time (seconds)
Module                                       User      System        Wall        Calls
Module                                       User      System        Wall        Calls

--------------------------------------------------------------------------------------

--------------------------------------------------------------------------------------

**************************************************************************************

**************************************************************************************

Host: davis-ws

Timers On : Mon Jan 13 14:35:39 2020
Timers Off: Mon Jan 13 14:36:46 2020

Wall Time:       66.89 seconds

                                                       Time (seconds)
Module                                       User      System        Wall        Calls
Total PK formation time             :      0.167u      0.000s      0.103w      2 calls
HF: Form core H                     :      0.000u      0.000s      0.001w      2 calls
HF: Form S/X                        :      0.000u      0.000s      0.000w      2 calls
HF: Guess                           :      0.400u      0.000s      0.242w      2 calls
SAD Guess                           :      0.383u      0.000s      0.226w      2 calls
HF: Form G                          :      0.000u      0.000s      0.002w     29 calls
JK: D                               :      0.000u      0.000s      0.000w     29 calls
JK: USO2AO                          :      0.000u      0.000s      0.000w     29 calls
JK: JK                              :      0.000u      0.000s      0.002w     29 calls
PK computes JK                      :      0.000u      0.000s      0.002w     29 calls
JK: AO2USO                          :      0.000u      0.000s      0.000w     29 calls
HF: Form F                          :      0.000u      0.000s      0.000w     29 calls
HF: Form D                          :      0.000u      0.000s      0.000w     29 calls
HF: DIIS                            :      0.000u      0.000s      0.010w     27 calls
DIISManager::add_entry              :      0.000u      0.000s      0.001w     27 calls
DIISManager::extrapolate            :      0.000u      0.000s      0.002w     27 calls
bMatrix setup                       :      0.000u      0.000s      0.001w     27 calls
bMatrix pseudoinverse               :      0.000u      0.000s      0.000w     27 calls
New vector                          :      0.000u      0.000s      0.001w     27 calls
HF: Form C                          :      0.017u      0.000s      0.002w     27 calls

--------------------------------------------------------------------------------------
Total PK formation time             :      0.167u      0.000s      0.103w      2 calls
HF: Form core H                     :      0.000u      0.000s      0.001w      2 calls
HF: Form S/X                        :      0.000u      0.000s      0.000w      2 calls
HF: Guess                           :      0.400u      0.000s      0.242w      2 calls
| SAD Guess                         :      0.383u      0.000s      0.226w      2 calls
HF: Form G                          :      0.000u      0.000s      0.002w     29 calls
| JK: D                             :      0.000u      0.000s      0.000w     29 calls
| JK: USO2AO                        :      0.000u      0.000s      0.000w     29 calls
| JK: JK                            :      0.000u      0.000s      0.002w     29 calls
| | PK computes JK                  :      0.000u      0.000s      0.002w     29 calls
| JK: AO2USO                        :      0.000u      0.000s      0.000w     29 calls
HF: Form F                          :      0.000u      0.000s      0.000w     29 calls
HF: Form D                          :      0.000u      0.000s      0.000w     29 calls
HF: DIIS                            :      0.000u      0.000s      0.010w     27 calls
| DIISManager::add_entry            :      0.000u      0.000s      0.001w     27 calls
| DIISManager::extrapolate          :      0.000u      0.000s      0.002w     27 calls
| | bMatrix setup                   :      0.000u      0.000s      0.001w     27 calls
| | bMatrix pseudoinverse           :      0.000u      0.000s      0.000w     27 calls
| | New vector                      :      0.000u      0.000s      0.001w     27 calls
HF: Form C                          :      0.017u      0.000s      0.002w     27 calls

**************************************************************************************

Host: davis-ws

Timers On : Mon Jan 13 14:35:43 2020
Timers Off: Mon Jan 13 14:36:46 2020

Wall Time:       63.57 seconds

                                                       Time (seconds)
Module                                       User      System        Wall        Calls


--------------------------------------------------------------------------------------

**************************************************************************************
Host: davis-ws

Timers On : Mon Jan 13 14:35:43 2020
Timers Off: Mon Jan 13 14:36:46 2020

Wall Time:       63.57 seconds

                                                       Time (seconds)
Module                                       User      System        Wall        Calls

--------------------------------------------------------------------------------------

**************************************************************************************

Host: davis-ws

Timers On : Mon Jan 13 14:35:43 2020
Timers Off: Mon Jan 13 14:36:46 2020

Wall Time:       63.55 seconds

                                                       Time (seconds)
Module                                       User      System        Wall        Calls

--------------------------------------------------------------------------------------

**************************************************************************************

Host: davis-ws

Timers On : Mon Jan 13 14:35:43 2020
Timers Off: Mon Jan 13 14:36:46 2020

Wall Time:       63.62 seconds

                                                       Time (seconds)
Module                                       User      System        Wall        Calls

--------------------------------------------------------------------------------------

**************************************************************************************

Host: davis-ws

Timers On : Mon Jan 13 14:35:43 2020
Timers Off: Mon Jan 13 14:36:46 2020


Wall Time:       63.62 seconds

Host: davis-ws
                                                       Time (seconds)

Module                                       User      System        Wall        Calls

--------------------------------------------------------------------------------------

**************************************************************************************
Timers On : Mon Jan 13 14:35:43 2020
Timers Off: Mon Jan 13 14:36:46 2020

Wall Time:       63.57 seconds

                                                       Time (seconds)
Module                                       User      System        Wall        Calls

--------------------------------------------------------------------------------------

**************************************************************************************


Host: davis-ws

Host: davis-ws

Timers On : Mon Jan 13 14:37:36 2020
Timers On : Mon Jan 13 14:37:36 2020
Timers Off: Mon Jan 13 14:38:28 2020
Timers Off: Mon Jan 13 14:38:28 2020

Wall Time:       52.73 seconds


Wall Time:       52.68 seconds

                                                       Time (seconds)
                                                       Time (seconds)
Module                                       User      System        Wall        Calls
Module                                       User      System        Wall        Calls

--------------------------------------------------------------------------------------

--------------------------------------------------------------------------------------

**************************************************************************************

**************************************************************************************

Host: davis-ws

Timers On : Mon Jan 13 14:37:36 2020
Timers Off: Mon Jan 13 14:38:28 2020

Wall Time:       52.78 seconds

                                                       Time (seconds)
Module                                       User      System        Wall        Calls

--------------------------------------------------------------------------------------

**************************************************************************************

Host: davis-ws

Timers On : Mon Jan 13 14:37:36 2020
Timers Off: Mon Jan 13 14:38:28 2020

Wall Time:       52.77 seconds

                                                       Time (seconds)
Module                                       User      System        Wall        Calls

--------------------------------------------------------------------------------------

**************************************************************************************


Host: davis-ws
Host: davis-ws


Timers On : Mon Jan 13 14:37:36 2020
Timers On : Mon Jan 13 14:37:36 2020
Timers Off: Mon Jan 13 14:38:28 2020
Timers Off: Mon Jan 13 14:38:28 2020

Wall Time:       52.79 seconds


Wall Time:       52.76 seconds

[...]
bMatrix setup                       :      0.017u      0.000s      0.003w     19 calls
bMatrix pseudoinverse               :      0.033u      0.000s      0.001w     19 calls
New vector                          :      0.033u      0.000s      0.002w     19 calls
HF: Form C                          :      0.100u      0.017s      0.013w     19 calls
ccenergy                            :    214.467u     12.417s     43.204w      1 calls
F build                             :     18.567u      0.450s      1.916w     27 calls
Wmbej build                         :     31.800u      2.267s      5.658w     27 calls
C->Wmbej                            :      6.083u      0.217s      2.876w     27 calls
F->Wmbej                            :     11.333u      1.367s      1.270w     27 calls
E->Wmbej                            :      4.933u      0.417s      0.535w     27 calls
X->Wmbej                            :      8.550u      0.150s      0.878w     27 calls
Z                                   :      6.033u      0.633s      0.688w     27 calls
T2 Build                            :     90.983u      6.050s     17.230w     27 calls
BT2                                 :     29.100u      2.367s      4.985w     27 calls
ABCD:new                            :     29.083u      2.367s      4.985w     27 calls
ABCD:S                              :      7.283u      0.850s      0.892w     27 calls
ABCD:A                              :      8.383u      0.883s      0.964w     27 calls
ABCD:axpy                           :      6.450u      0.383s      0.687w     27 calls
FT2                                 :      4.050u      0.317s      0.683w     27 calls
WmbejT2                             :     17.000u      1.067s      3.504w     27 calls
CT2                                 :     16.783u      1.417s      1.896w     27 calls

--------------------------------------------------------------------------------------
Total PK formation time             :      3.983u      0.083s      0.408w      1 calls
HF: Form core H                     :      0.017u      0.017s      0.001w      1 calls
HF: Form S/X                        :      0.017u      0.000s      0.001w      1 calls
HF: Guess                           :      1.667u      0.017s      0.171w      1 calls
| SAD Guess                         :      1.583u      0.017s      0.162w      1 calls
HF: Form G                          :      1.483u      0.017s      0.151w     20 calls
| JK: D                             :      0.000u      0.000s      0.000w     20 calls
| JK: USO2AO                        :      0.000u      0.000s      0.000w     20 calls
| JK: JK                            :      1.383u      0.017s      0.149w     20 calls
| | PK computes JK                  :      1.383u      0.017s      0.149w     20 calls
| JK: AO2USO                        :      0.000u      0.000s      0.000w     20 calls
HF: Form F                          :      0.000u      0.000s      0.001w     20 calls
HF: Form D                          :      0.000u      0.000s      0.000w     20 calls
HF: DIIS                            :      0.367u      0.000s      0.040w     19 calls
| DIISManager::add_entry            :      0.200u      0.000s      0.025w     19 calls
| DIISManager::extrapolate          :      0.083u      0.000s      0.006w     19 calls
| | bMatrix setup                   :      0.017u      0.000s      0.003w     19 calls
| | bMatrix pseudoinverse           :      0.033u      0.000s      0.001w     19 calls
| | New vector                      :      0.033u      0.000s      0.002w     19 calls
HF: Form C                          :      0.100u      0.017s      0.013w     19 calls
ccenergy                            :    214.467u     12.417s     43.204w      1 calls
| F build                           :     18.567u      0.450s      1.916w     27 calls
| Wmbej build                       :     31.800u      2.267s      5.658w     27 calls
| | C->Wmbej                        :      6.083u      0.217s      2.876w     27 calls
| | F->Wmbej                        :     11.333u      1.367s      1.270w     27 calls
| | E->Wmbej                        :      4.933u      0.417s      0.535w     27 calls
| | X->Wmbej                        :      8.550u      0.150s      0.878w     27 calls
| Z                                 :      6.033u      0.633s      0.688w     27 calls
| T2 Build                          :     90.983u      6.050s     17.230w     27 calls
| | BT2                             :     29.100u      2.367s      4.985w     27 calls
| | | ABCD:new                      :     29.083u      2.367s      4.985w     27 calls
| | | | ABCD:S                      :      7.283u      0.850s      0.892w     27 calls
| | | | ABCD:A                      :      8.383u      0.883s      0.964w     27 calls
| | | | ABCD:axpy                   :      6.450u      0.383s      0.687w     27 calls
| | FT2                             :      4.050u      0.317s      0.683w     27 calls
| | WmbejT2                         :     17.000u      1.067s      3.504w     27 calls
| | CT2                             :     16.783u      1.417s      1.896w     27 calls

**************************************************************************************

Host: davis-ws

Timers On : Tue Jan 21 17:01:05 2020
Timers Off: Tue Jan 21 17:04:59 2020

Wall Time:      233.84 seconds

                                                       Time (seconds)
Module                                       User      System        Wall        Calls
Total PK formation time             :      3.867u      0.033s      0.390w      1 calls
HF: Form core H                     :      0.017u      0.000s      0.001w      1 calls
HF: Form S/X                        :      0.017u      0.000s      0.001w      1 calls
HF: Guess                           :      1.550u      0.017s      0.156w      1 calls
SAD Guess                           :      1.467u      0.017s      0.148w      1 calls
HF: Form G                          :      1.017u      0.033s      0.103w     20 calls
JK: D                               :      0.000u      0.000s      0.000w     20 calls
JK: USO2AO                          :      0.000u      0.000s      0.000w     20 calls
JK: JK                              :      1.000u      0.033s      0.102w     20 calls
PK computes JK                      :      1.000u      0.033s      0.102w     20 calls
JK: AO2USO                          :      0.000u      0.000s      0.000w     20 calls
HF: Form F                          :      0.017u      0.000s      0.000w     20 calls
HF: Form D                          :      0.000u      0.017s      0.000w     20 calls
HF: DIIS                            :      0.150u      0.000s      0.014w     19 calls
DIISManager::add_entry              :      0.033u      0.000s      0.001w     19 calls
DIISManager::extrapolate            :      0.033u      0.000s      0.005w     19 calls
bMatrix setup                       :      0.017u      0.000s      0.002w     19 calls
bMatrix pseudoinverse               :      0.000u      0.000s      0.001w     19 calls
New vector                          :      0.017u      0.000s      0.002w     19 calls
HF: Form C                          :      0.083u      0.000s      0.012w     19 calls

--------------------------------------------------------------------------------------
Total PK formation time             :      3.867u      0.033s      0.390w      1 calls
HF: Form core H                     :      0.017u      0.000s      0.001w      1 calls
HF: Form S/X                        :      0.017u      0.000s      0.001w      1 calls
HF: Guess                           :      1.550u      0.017s      0.156w      1 calls
| SAD Guess                         :      1.467u      0.017s      0.148w      1 calls
HF: Form G                          :      1.017u      0.033s      0.103w     20 calls
| JK: D                             :      0.000u      0.000s      0.000w     20 calls
| JK: USO2AO                        :      0.000u      0.000s      0.000w     20 calls
| JK: JK                            :      1.000u      0.033s      0.102w     20 calls
| | PK computes JK                  :      1.000u      0.033s      0.102w     20 calls
| JK: AO2USO                        :      0.000u      0.000s      0.000w     20 calls
HF: Form F                          :      0.017u      0.000s      0.000w     20 calls
HF: Form D                          :      0.000u      0.017s      0.000w     20 calls
HF: DIIS                            :      0.150u      0.000s      0.014w     19 calls
| DIISManager::add_entry            :      0.033u      0.000s      0.001w     19 calls
| DIISManager::extrapolate          :      0.033u      0.000s      0.005w     19 calls
| | bMatrix setup                   :      0.017u      0.000s      0.002w     19 calls
| | bMatrix pseudoinverse           :      0.000u      0.000s      0.001w     19 calls
| | New vector                      :      0.017u      0.000s      0.002w     19 calls
HF: Form C                          :      0.083u      0.000s      0.012w     19 calls

**************************************************************************************

Host: davis-ws

Timers On : Tue Jan 21 17:07:06 2020
Timers Off: Tue Jan 21 17:20:28 2020

Wall Time:      801.63 seconds

                                                       Time (seconds)
Module                                       User      System        Wall        Calls
Total PK formation time             :      9.050u      0.117s      0.926w      1 calls
HF: Form core H                     :      0.000u      0.000s      0.001w      1 calls
HF: Form S/X                        :      0.017u      0.000s      0.002w      1 calls
HF: Guess                           :      1.550u      0.017s      0.156w      1 calls
SAD Guess                           :      1.467u      0.017s      0.148w      1 calls
HF: Form G                          :      2.667u      0.000s      0.275w     20 calls
JK: D                               :      0.000u      0.000s      0.000w     20 calls
JK: USO2AO                          :      0.000u      0.000s      0.000w     20 calls
JK: JK                              :      2.667u      0.000s      0.273w     20 calls
PK computes JK                      :      2.667u      0.000s      0.273w     20 calls
JK: AO2USO                          :      0.000u      0.000s      0.000w     20 calls
HF: Form F                          :      0.000u      0.000s      0.000w     20 calls
HF: Form D                          :      0.017u      0.000s      0.000w     20 calls
HF: DIIS                            :      0.200u      0.017s      0.017w     19 calls
DIISManager::add_entry              :      0.017u      0.017s      0.002w     19 calls
DIISManager::extrapolate            :      0.133u      0.000s      0.007w     19 calls
bMatrix setup                       :      0.017u      0.000s      0.003w     19 calls
bMatrix pseudoinverse               :      0.033u      0.000s      0.001w     19 calls
New vector                          :      0.083u      0.000s      0.003w     19 calls
HF: Form C                          :      0.100u      0.017s      0.019w     19 calls

--------------------------------------------------------------------------------------
Total PK formation time             :      9.050u      0.117s      0.926w      1 calls
HF: Form core H                     :      0.000u      0.000s      0.001w      1 calls
HF: Form S/X                        :      0.017u      0.000s      0.002w      1 calls
HF: Guess                           :      1.550u      0.017s      0.156w      1 calls
| SAD Guess                         :      1.467u      0.017s      0.148w      1 calls
HF: Form G                          :      2.667u      0.000s      0.275w     20 calls
| JK: D                             :      0.000u      0.000s      0.000w     20 calls
| JK: USO2AO                        :      0.000u      0.000s      0.000w     20 calls
| JK: JK                            :      2.667u      0.000s      0.273w     20 calls
| | PK computes JK                  :      2.667u      0.000s      0.273w     20 calls
| JK: AO2USO                        :      0.000u      0.000s      0.000w     20 calls
HF: Form F                          :      0.000u      0.000s      0.000w     20 calls
HF: Form D                          :      0.017u      0.000s      0.000w     20 calls
HF: DIIS                            :      0.200u      0.017s      0.017w     19 calls
| DIISManager::add_entry            :      0.017u      0.017s      0.002w     19 calls
| DIISManager::extrapolate          :      0.133u      0.000s      0.007w     19 calls
| | bMatrix setup                   :      0.017u      0.000s      0.003w     19 calls
| | bMatrix pseudoinverse           :      0.033u      0.000s      0.001w     19 calls
| | New vector                      :      0.083u      0.000s      0.003w     19 calls
HF: Form C                          :      0.100u      0.017s      0.019w     19 calls

**************************************************************************************

Host: davis-ws

Timers On : Tue Jan 21 17:20:49 2020
Timers Off: Tue Jan 21 17:22:15 2020

Wall Time:       86.68 seconds

                                                       Time (seconds)
Module                                       User      System        Wall        Calls
Total PK formation time             :     10.383u      0.133s      1.086w      1 calls
HF: Form core H                     :      0.017u      0.000s      0.001w      1 calls
HF: Form S/X                        :      0.017u      0.000s      0.002w      1 calls
HF: Guess                           :      1.733u      0.050s      0.178w      1 calls
SAD Guess                           :      1.650u      0.050s      0.169w      1 calls
HF: Form G                          :      3.250u      0.017s      0.332w     20 calls
JK: D                               :      0.000u      0.000s      0.000w     20 calls
JK: USO2AO                          :      0.000u      0.000s      0.000w     20 calls
JK: JK                              :      3.233u      0.017s      0.329w     20 calls
PK computes JK                      :      3.233u      0.017s      0.329w     20 calls
JK: AO2USO                          :      0.000u      0.000s      0.000w     20 calls
HF: Form F                          :      0.017u      0.000s      0.001w     20 calls
HF: Form D                          :      0.033u      0.000s      0.000w     20 calls
HF: DIIS                            :      0.200u      0.017s      0.021w     19 calls
DIISManager::add_entry              :      0.067u      0.017s      0.002w     19 calls
DIISManager::extrapolate            :      0.083u      0.000s      0.009w     19 calls
bMatrix setup                       :      0.067u      0.000s      0.004w     19 calls
bMatrix pseudoinverse               :      0.017u      0.000s      0.001w     19 calls
New vector                          :      0.000u      0.000s      0.004w     19 calls
HF: Form C                          :      0.167u      0.017s      0.022w     19 calls
ccenergy                            :    678.983u     51.300s     73.317w      1 calls
F build                             :     71.567u      1.667s      7.366w     31 calls
Wmbej build                         :    123.017u      9.117s     13.247w     31 calls
C->Wmbej                            :      5.733u      0.800s      0.665w     31 calls
F->Wmbej                            :     37.650u      4.367s      4.238w     31 calls
E->Wmbej                            :     29.250u      2.583s      3.157w     31 calls
X->Wmbej                            :     42.800u      0.550s      4.349w     31 calls
Z                                   :     22.583u      2.450s      2.501w     31 calls
T2 Build                            :    288.317u     28.283s     31.751w     31 calls
BT2                                 :     78.633u      8.350s      8.678w     31 calls
ABCD:new                            :     78.600u      8.350s      8.678w     31 calls
ABCD:S                              :     23.717u      3.150s      2.680w     31 calls
ABCD:A                              :     24.567u      3.333s      2.791w     31 calls
ABCD:axpy                           :     21.683u      1.050s      2.272w     31 calls
FT2                                 :     11.383u      1.450s      1.295w     31 calls
WmbejT2                             :     65.850u      7.300s      7.341w     31 calls
CT2                                 :     79.650u      8.017s      8.845w     31 calls

--------------------------------------------------------------------------------------
Total PK formation time             :     10.383u      0.133s      1.086w      1 calls
HF: Form core H                     :      0.017u      0.000s      0.001w      1 calls
HF: Form S/X                        :      0.017u      0.000s      0.002w      1 calls
HF: Guess                           :      1.733u      0.050s      0.178w      1 calls
| SAD Guess                         :      1.650u      0.050s      0.169w      1 calls
HF: Form G                          :      3.250u      0.017s      0.332w     20 calls
| JK: D                             :      0.000u      0.000s      0.000w     20 calls
| JK: USO2AO                        :      0.000u      0.000s      0.000w     20 calls
| JK: JK                            :      3.233u      0.017s      0.329w     20 calls
| | PK computes JK                  :      3.233u      0.017s      0.329w     20 calls
| JK: AO2USO                        :      0.000u      0.000s      0.000w     20 calls
HF: Form F                          :      0.017u      0.000s      0.001w     20 calls
HF: Form D                          :      0.033u      0.000s      0.000w     20 calls
HF: DIIS                            :      0.200u      0.017s      0.021w     19 calls
| DIISManager::add_entry            :      0.067u      0.017s      0.002w     19 calls
| DIISManager::extrapolate          :      0.083u      0.000s      0.009w     19 calls
| | bMatrix setup                   :      0.067u      0.000s      0.004w     19 calls
| | bMatrix pseudoinverse           :      0.017u      0.000s      0.001w     19 calls
| | New vector                      :      0.000u      0.000s      0.004w     19 calls
HF: Form C                          :      0.167u      0.017s      0.022w     19 calls
ccenergy                            :    678.983u     51.300s     73.317w      1 calls
| F build                           :     71.567u      1.667s      7.366w     31 calls
| Wmbej build                       :    123.017u      9.117s     13.247w     31 calls
| | C->Wmbej                        :      5.733u      0.800s      0.665w     31 calls
| | F->Wmbej                        :     37.650u      4.367s      4.238w     31 calls
| | E->Wmbej                        :     29.250u      2.583s      3.157w     31 calls
| | X->Wmbej                        :     42.800u      0.550s      4.349w     31 calls
| Z                                 :     22.583u      2.450s      2.501w     31 calls
| T2 Build                          :    288.317u     28.283s     31.751w     31 calls
| | BT2                             :     78.633u      8.350s      8.678w     31 calls
| | | ABCD:new                      :     78.600u      8.350s      8.678w     31 calls
| | | | ABCD:S                      :     23.717u      3.150s      2.680w     31 calls
| | | | ABCD:A                      :     24.567u      3.333s      2.791w     31 calls
| | | | ABCD:axpy                   :     21.683u      1.050s      2.272w     31 calls
| | FT2                             :     11.383u      1.450s      1.295w     31 calls
| | WmbejT2                         :     65.850u      7.300s      7.341w     31 calls
| | CT2                             :     79.650u      8.017s      8.845w     31 calls

**************************************************************************************
