
Host: penguin

Timers On : Fri Jan 10 15:31:35 2020
Timers Off: Fri Jan 10 15:31:47 2020

Wall Time:       11.89 seconds

                                                       Time (seconds)
Module                                       User      System        Wall        Calls
Total PK formation time             :      0.067u      0.000s      0.042w      1 calls
HF: Form core H                     :      0.017u      0.000s      0.001w      1 calls
HF: Form S/X                        :      0.000u      0.000s      0.001w      1 calls
HF: Guess                           :      0.400u      0.000s      0.250w      1 calls
SAD Guess                           :      0.383u      0.000s      0.234w      1 calls
HF: Form G                          :      0.000u      0.000s      0.001w     12 calls
JK: D                               :      0.000u      0.000s      0.000w     12 calls
JK: USO2AO                          :      0.000u      0.000s      0.000w     12 calls
JK: JK                              :      0.000u      0.000s      0.000w     12 calls
PK computes JK                      :      0.000u      0.000s      0.000w     12 calls
JK: AO2USO                          :      0.000u      0.000s      0.000w     12 calls
HF: Form F                          :      0.000u      0.000s      0.000w     12 calls
HF: Form D                          :      0.000u      0.000s      0.000w     12 calls
HF: DIIS                            :      0.000u      0.000s      0.009w     11 calls
DIISManager::add_entry              :      0.000u      0.000s      0.001w     11 calls
DIISManager::extrapolate            :      0.000u      0.000s      0.002w     11 calls
bMatrix setup                       :      0.000u      0.000s      0.001w     11 calls
bMatrix pseudoinverse               :      0.000u      0.000s      0.001w     11 calls
New vector                          :      0.000u      0.000s      0.000w     11 calls
HF: Form C                          :      0.000u      0.000s      0.001w     11 calls

--------------------------------------------------------------------------------------
Total PK formation time             :      0.067u      0.000s      0.042w      1 calls
HF: Form core H                     :      0.017u      0.000s      0.001w      1 calls
HF: Form S/X                        :      0.000u      0.000s      0.001w      1 calls
HF: Guess                           :      0.400u      0.000s      0.250w      1 calls
| SAD Guess                         :      0.383u      0.000s      0.234w      1 calls
HF: Form G                          :      0.000u      0.000s      0.001w     12 calls
| JK: D                             :      0.000u      0.000s      0.000w     12 calls
| JK: USO2AO                        :      0.000u      0.000s      0.000w     12 calls
| JK: JK                            :      0.000u      0.000s      0.000w     12 calls
| | PK computes JK                  :      0.000u      0.000s      0.000w     12 calls
| JK: AO2USO                        :      0.000u      0.000s      0.000w     12 calls
HF: Form F                          :      0.000u      0.000s      0.000w     12 calls
HF: Form D                          :      0.000u      0.000s      0.000w     12 calls
HF: DIIS                            :      0.000u      0.000s      0.009w     11 calls
| DIISManager::add_entry            :      0.000u      0.000s      0.001w     11 calls
| DIISManager::extrapolate          :      0.000u      0.000s      0.002w     11 calls
| | bMatrix setup                   :      0.000u      0.000s      0.001w     11 calls
| | bMatrix pseudoinverse           :      0.000u      0.000s      0.001w     11 calls
| | New vector                      :      0.000u      0.000s      0.000w     11 calls
HF: Form C                          :      0.000u      0.000s      0.001w     11 calls

**************************************************************************************

Host: penguin

Timers On : Fri Jan 10 18:51:21 2020
Timers Off: Fri Jan 10 18:51:30 2020

Wall Time:        8.09 seconds

                                                       Time (seconds)
Module                                       User      System        Wall        Calls
Total PK formation time             :      0.050u      0.000s      0.034w      1 calls
HF: Form core H                     :      0.000u      0.000s      0.001w      1 calls
HF: Form S/X                        :      0.000u      0.000s      0.001w      1 calls
HF: Guess                           :      0.333u      0.000s      0.194w      1 calls
SAD Guess                           :      0.300u      0.000s      0.182w      1 calls
HF: Form G                          :      0.000u      0.000s      0.001w     12 calls
JK: D                               :      0.000u      0.000s      0.000w     12 calls
JK: USO2AO                          :      0.000u      0.000s      0.000w     12 calls
JK: JK                              :      0.000u      0.000s      0.000w     12 calls
PK computes JK                      :      0.000u      0.000s      0.000w     12 calls
JK: AO2USO                          :      0.000u      0.000s      0.000w     12 calls
HF: Form F                          :      0.000u      0.000s      0.000w     12 calls
HF: Form D                          :      0.000u      0.000s      0.000w     12 calls
HF: DIIS                            :      0.017u      0.000s      0.006w     11 calls
DIISManager::add_entry              :      0.000u      0.000s      0.001w     11 calls
DIISManager::extrapolate            :      0.000u      0.000s      0.001w     11 calls
bMatrix setup                       :      0.000u      0.000s      0.000w     11 calls
bMatrix pseudoinverse               :      0.000u      0.000s      0.000w     11 calls
New vector                          :      0.000u      0.000s      0.000w     11 calls
HF: Form C                          :      0.000u      0.000s      0.000w     11 calls

--------------------------------------------------------------------------------------
Total PK formation time             :      0.050u      0.000s      0.034w      1 calls
HF: Form core H                     :      0.000u      0.000s      0.001w      1 calls
HF: Form S/X                        :      0.000u      0.000s      0.001w      1 calls
HF: Guess                           :      0.333u      0.000s      0.194w      1 calls
| SAD Guess                         :      0.300u      0.000s      0.182w      1 calls
HF: Form G                          :      0.000u      0.000s      0.001w     12 calls
| JK: D                             :      0.000u      0.000s      0.000w     12 calls
| JK: USO2AO                        :      0.000u      0.000s      0.000w     12 calls
| JK: JK                            :      0.000u      0.000s      0.000w     12 calls
| | PK computes JK                  :      0.000u      0.000s      0.000w     12 calls
| JK: AO2USO                        :      0.000u      0.000s      0.000w     12 calls
HF: Form F                          :      0.000u      0.000s      0.000w     12 calls
HF: Form D                          :      0.000u      0.000s      0.000w     12 calls
HF: DIIS                            :      0.017u      0.000s      0.006w     11 calls
| DIISManager::add_entry            :      0.000u      0.000s      0.001w     11 calls
| DIISManager::extrapolate          :      0.000u      0.000s      0.001w     11 calls
| | bMatrix setup                   :      0.000u      0.000s      0.000w     11 calls
| | bMatrix pseudoinverse           :      0.000u      0.000s      0.000w     11 calls
| | New vector                      :      0.000u      0.000s      0.000w     11 calls
HF: Form C                          :      0.000u      0.000s      0.000w     11 calls

**************************************************************************************

Host: penguin

Timers On : Fri Jan 10 19:24:18 2020
Timers Off: Fri Jan 10 19:24:31 2020

Wall Time:       12.73 seconds

                                                       Time (seconds)
Module                                       User      System        Wall        Calls
Total PK formation time             :      0.050u      0.000s      0.031w      1 calls
HF: Form core H                     :      0.000u      0.000s      0.001w      1 calls
HF: Form S/X                        :      0.000u      0.000s      0.001w      1 calls
HF: Guess                           :      0.283u      0.000s      0.171w      1 calls
SAD Guess                           :      0.267u      0.000s      0.159w      1 calls
HF: Form G                          :      0.000u      0.000s      0.001w     12 calls
JK: D                               :      0.000u      0.000s      0.000w     12 calls
JK: USO2AO                          :      0.000u      0.000s      0.000w     12 calls
JK: JK                              :      0.000u      0.000s      0.000w     12 calls
PK computes JK                      :      0.000u      0.000s      0.000w     12 calls
JK: AO2USO                          :      0.000u      0.000s      0.000w     12 calls
HF: Form F                          :      0.000u      0.000s      0.000w     12 calls
HF: Form D                          :      0.000u      0.000s      0.000w     12 calls
HF: DIIS                            :      0.000u      0.000s      0.006w     11 calls
DIISManager::add_entry              :      0.000u      0.000s      0.001w     11 calls
DIISManager::extrapolate            :      0.000u      0.000s      0.001w     11 calls
bMatrix setup                       :      0.000u      0.000s      0.000w     11 calls
bMatrix pseudoinverse               :      0.000u      0.000s      0.000w     11 calls
New vector                          :      0.000u      0.000s      0.000w     11 calls
HF: Form C                          :      0.000u      0.000s      0.000w     11 calls

--------------------------------------------------------------------------------------
Total PK formation time             :      0.050u      0.000s      0.031w      1 calls
HF: Form core H                     :      0.000u      0.000s      0.001w      1 calls
HF: Form S/X                        :      0.000u      0.000s      0.001w      1 calls
HF: Guess                           :      0.283u      0.000s      0.171w      1 calls
| SAD Guess                         :      0.267u      0.000s      0.159w      1 calls
HF: Form G                          :      0.000u      0.000s      0.001w     12 calls
| JK: D                             :      0.000u      0.000s      0.000w     12 calls
| JK: USO2AO                        :      0.000u      0.000s      0.000w     12 calls
| JK: JK                            :      0.000u      0.000s      0.000w     12 calls
| | PK computes JK                  :      0.000u      0.000s      0.000w     12 calls
| JK: AO2USO                        :      0.000u      0.000s      0.000w     12 calls
HF: Form F                          :      0.000u      0.000s      0.000w     12 calls
HF: Form D                          :      0.000u      0.000s      0.000w     12 calls
HF: DIIS                            :      0.000u      0.000s      0.006w     11 calls
| DIISManager::add_entry            :      0.000u      0.000s      0.001w     11 calls
| DIISManager::extrapolate          :      0.000u      0.000s      0.001w     11 calls
| | bMatrix setup                   :      0.000u      0.000s      0.000w     11 calls
| | bMatrix pseudoinverse           :      0.000u      0.000s      0.000w     11 calls
| | New vector                      :      0.000u      0.000s      0.000w     11 calls
HF: Form C                          :      0.000u      0.000s      0.000w     11 calls

**************************************************************************************

Host: penguin

Timers On : Fri Jan 10 19:26:43 2020
Timers Off: Fri Jan 10 19:26:56 2020

Wall Time:       12.94 seconds

                                                       Time (seconds)
Module                                       User      System        Wall        Calls
Total PK formation time             :      0.050u      0.000s      0.034w      1 calls
HF: Form core H                     :      0.000u      0.000s      0.001w      1 calls
HF: Form S/X                        :      0.000u      0.000s      0.000w      1 calls
HF: Guess                           :      0.300u      0.000s      0.177w      1 calls
SAD Guess                           :      0.267u      0.000s      0.166w      1 calls
HF: Form G                          :      0.000u      0.000s      0.001w     12 calls
JK: D                               :      0.000u      0.000s      0.000w     12 calls
JK: USO2AO                          :      0.000u      0.000s      0.000w     12 calls
JK: JK                              :      0.000u      0.000s      0.000w     12 calls
PK computes JK                      :      0.000u      0.000s      0.000w     12 calls
JK: AO2USO                          :      0.000u      0.000s      0.000w     12 calls
HF: Form F                          :      0.000u      0.000s      0.000w     12 calls
HF: Form D                          :      0.000u      0.000s      0.000w     12 calls
HF: DIIS                            :      0.033u      0.000s      0.006w     11 calls
DIISManager::add_entry              :      0.000u      0.000s      0.001w     11 calls
DIISManager::extrapolate            :      0.000u      0.000s      0.001w     11 calls
bMatrix setup                       :      0.000u      0.000s      0.000w     11 calls
bMatrix pseudoinverse               :      0.000u      0.000s      0.000w     11 calls
New vector                          :      0.000u      0.000s      0.000w     11 calls
HF: Form C                          :      0.000u      0.000s      0.000w     11 calls

--------------------------------------------------------------------------------------
Total PK formation time             :      0.050u      0.000s      0.034w      1 calls
HF: Form core H                     :      0.000u      0.000s      0.001w      1 calls
HF: Form S/X                        :      0.000u      0.000s      0.000w      1 calls
HF: Guess                           :      0.300u      0.000s      0.177w      1 calls
| SAD Guess                         :      0.267u      0.000s      0.166w      1 calls
HF: Form G                          :      0.000u      0.000s      0.001w     12 calls
| JK: D                             :      0.000u      0.000s      0.000w     12 calls
| JK: USO2AO                        :      0.000u      0.000s      0.000w     12 calls
| JK: JK                            :      0.000u      0.000s      0.000w     12 calls
| | PK computes JK                  :      0.000u      0.000s      0.000w     12 calls
| JK: AO2USO                        :      0.000u      0.000s      0.000w     12 calls
HF: Form F                          :      0.000u      0.000s      0.000w     12 calls
HF: Form D                          :      0.000u      0.000s      0.000w     12 calls
HF: DIIS                            :      0.033u      0.000s      0.006w     11 calls
| DIISManager::add_entry            :      0.000u      0.000s      0.001w     11 calls
| DIISManager::extrapolate          :      0.000u      0.000s      0.001w     11 calls
| | bMatrix setup                   :      0.000u      0.000s      0.000w     11 calls
| | bMatrix pseudoinverse           :      0.000u      0.000s      0.000w     11 calls
| | New vector                      :      0.000u      0.000s      0.000w     11 calls
HF: Form C                          :      0.000u      0.000s      0.000w     11 calls

**************************************************************************************

Host: penguin

Timers On : Fri Jan 10 19:27:03 2020
Timers Off: Fri Jan 10 19:27:16 2020

Wall Time:       12.53 seconds

                                                       Time (seconds)
Module                                       User      System        Wall        Calls
Total PK formation time             :      0.050u      0.000s      0.031w      1 calls
HF: Form core H                     :      0.000u      0.000s      0.001w      1 calls
HF: Form S/X                        :      0.000u      0.000s      0.000w      1 calls
HF: Guess                           :      0.267u      0.000s      0.165w      1 calls
SAD Guess                           :      0.250u      0.000s      0.154w      1 calls
HF: Form G                          :      0.000u      0.000s      0.001w     12 calls
JK: D                               :      0.000u      0.000s      0.000w     12 calls
JK: USO2AO                          :      0.000u      0.000s      0.000w     12 calls
JK: JK                              :      0.000u      0.000s      0.000w     12 calls
PK computes JK                      :      0.000u      0.000s      0.000w     12 calls
JK: AO2USO                          :      0.000u      0.000s      0.000w     12 calls
HF: Form F                          :      0.000u      0.000s      0.000w     12 calls
HF: Form D                          :      0.000u      0.000s      0.000w     12 calls
HF: DIIS                            :      0.000u      0.000s      0.006w     11 calls
DIISManager::add_entry              :      0.000u      0.000s      0.001w     11 calls
DIISManager::extrapolate            :      0.000u      0.000s      0.001w     11 calls
bMatrix setup                       :      0.000u      0.000s      0.000w     11 calls
bMatrix pseudoinverse               :      0.000u      0.000s      0.000w     11 calls
New vector                          :      0.000u      0.000s      0.000w     11 calls
HF: Form C                          :      0.000u      0.000s      0.000w     11 calls

--------------------------------------------------------------------------------------
Total PK formation time             :      0.050u      0.000s      0.031w      1 calls
HF: Form core H                     :      0.000u      0.000s      0.001w      1 calls
HF: Form S/X                        :      0.000u      0.000s      0.000w      1 calls
HF: Guess                           :      0.267u      0.000s      0.165w      1 calls
| SAD Guess                         :      0.250u      0.000s      0.154w      1 calls
HF: Form G                          :      0.000u      0.000s      0.001w     12 calls
| JK: D                             :      0.000u      0.000s      0.000w     12 calls
| JK: USO2AO                        :      0.000u      0.000s      0.000w     12 calls
| JK: JK                            :      0.000u      0.000s      0.000w     12 calls
| | PK computes JK                  :      0.000u      0.000s      0.000w     12 calls
| JK: AO2USO                        :      0.000u      0.000s      0.000w     12 calls
HF: Form F                          :      0.000u      0.000s      0.000w     12 calls
HF: Form D                          :      0.000u      0.000s      0.000w     12 calls
HF: DIIS                            :      0.000u      0.000s      0.006w     11 calls
| DIISManager::add_entry            :      0.000u      0.000s      0.001w     11 calls
| DIISManager::extrapolate          :      0.000u      0.000s      0.001w     11 calls
| | bMatrix setup                   :      0.000u      0.000s      0.000w     11 calls
| | bMatrix pseudoinverse           :      0.000u      0.000s      0.000w     11 calls
| | New vector                      :      0.000u      0.000s      0.000w     11 calls
HF: Form C                          :      0.000u      0.000s      0.000w     11 calls

**************************************************************************************

Host: penguin

Timers On : Fri Jan 10 19:30:01 2020
Timers Off: Fri Jan 10 19:30:14 2020

Wall Time:       12.35 seconds

                                                       Time (seconds)
Module                                       User      System        Wall        Calls
Total PK formation time             :      0.050u      0.000s      0.031w      1 calls
HF: Form core H                     :      0.000u      0.000s      0.001w      1 calls
HF: Form S/X                        :      0.000u      0.000s      0.000w      1 calls
HF: Guess                           :      0.267u      0.000s      0.165w      1 calls
SAD Guess                           :      0.250u      0.000s      0.154w      1 calls
HF: Form G                          :      0.000u      0.000s      0.001w     12 calls
JK: D                               :      0.000u      0.000s      0.000w     12 calls
JK: USO2AO                          :      0.000u      0.000s      0.000w     12 calls
JK: JK                              :      0.000u      0.000s      0.000w     12 calls
PK computes JK                      :      0.000u      0.000s      0.000w     12 calls
JK: AO2USO                          :      0.000u      0.000s      0.000w     12 calls
HF: Form F                          :      0.000u      0.000s      0.000w     12 calls
HF: Form D                          :      0.000u      0.000s      0.000w     12 calls
HF: DIIS                            :      0.017u      0.000s      0.006w     11 calls
DIISManager::add_entry              :      0.000u      0.000s      0.001w     11 calls
DIISManager::extrapolate            :      0.000u      0.000s      0.001w     11 calls
bMatrix setup                       :      0.000u      0.000s      0.000w     11 calls
bMatrix pseudoinverse               :      0.000u      0.000s      0.000w     11 calls
New vector                          :      0.000u      0.000s      0.000w     11 calls
HF: Form C                          :      0.000u      0.000s      0.000w     11 calls

--------------------------------------------------------------------------------------
Total PK formation time             :      0.050u      0.000s      0.031w      1 calls
HF: Form core H                     :      0.000u      0.000s      0.001w      1 calls
HF: Form S/X                        :      0.000u      0.000s      0.000w      1 calls
HF: Guess                           :      0.267u      0.000s      0.165w      1 calls
| SAD Guess                         :      0.250u      0.000s      0.154w      1 calls
HF: Form G                          :      0.000u      0.000s      0.001w     12 calls
| JK: D                             :      0.000u      0.000s      0.000w     12 calls
| JK: USO2AO                        :      0.000u      0.000s      0.000w     12 calls
| JK: JK                            :      0.000u      0.000s      0.000w     12 calls
| | PK computes JK                  :      0.000u      0.000s      0.000w     12 calls
| JK: AO2USO                        :      0.000u      0.000s      0.000w     12 calls
HF: Form F                          :      0.000u      0.000s      0.000w     12 calls
HF: Form D                          :      0.000u      0.000s      0.000w     12 calls
HF: DIIS                            :      0.017u      0.000s      0.006w     11 calls
| DIISManager::add_entry            :      0.000u      0.000s      0.001w     11 calls
| DIISManager::extrapolate          :      0.000u      0.000s      0.001w     11 calls
| | bMatrix setup                   :      0.000u      0.000s      0.000w     11 calls
| | bMatrix pseudoinverse           :      0.000u      0.000s      0.000w     11 calls
| | New vector                      :      0.000u      0.000s      0.000w     11 calls
HF: Form C                          :      0.000u      0.000s      0.000w     11 calls

**************************************************************************************

Host: penguin

Timers On : Fri Jan 10 19:31:16 2020
Timers Off: Fri Jan 10 19:31:24 2020

Wall Time:        7.82 seconds

                                                       Time (seconds)
Module                                       User      System        Wall        Calls
Total PK formation time             :      0.050u      0.000s      0.030w      1 calls
HF: Form core H                     :      0.000u      0.000s      0.001w      1 calls
HF: Form S/X                        :      0.000u      0.000s      0.000w      1 calls
HF: Guess                           :      0.283u      0.000s      0.174w      1 calls
SAD Guess                           :      0.267u      0.000s      0.163w      1 calls
HF: Form G                          :      0.000u      0.000s      0.001w     12 calls
JK: D                               :      0.000u      0.000s      0.000w     12 calls
JK: USO2AO                          :      0.000u      0.000s      0.000w     12 calls
JK: JK                              :      0.000u      0.000s      0.000w     12 calls
PK computes JK                      :      0.000u      0.000s      0.000w     12 calls
JK: AO2USO                          :      0.000u      0.000s      0.000w     12 calls
HF: Form F                          :      0.000u      0.000s      0.000w     12 calls
HF: Form D                          :      0.000u      0.000s      0.000w     12 calls
HF: DIIS                            :      0.000u      0.000s      0.006w     11 calls
DIISManager::add_entry              :      0.000u      0.000s      0.001w     11 calls
DIISManager::extrapolate            :      0.000u      0.000s      0.001w     11 calls
bMatrix setup                       :      0.000u      0.000s      0.000w     11 calls
bMatrix pseudoinverse               :      0.000u      0.000s      0.000w     11 calls
New vector                          :      0.000u      0.000s      0.000w     11 calls
HF: Form C                          :      0.000u      0.000s      0.000w     11 calls

--------------------------------------------------------------------------------------
Total PK formation time             :      0.050u      0.000s      0.030w      1 calls
HF: Form core H                     :      0.000u      0.000s      0.001w      1 calls
HF: Form S/X                        :      0.000u      0.000s      0.000w      1 calls
HF: Guess                           :      0.283u      0.000s      0.174w      1 calls
| SAD Guess                         :      0.267u      0.000s      0.163w      1 calls
HF: Form G                          :      0.000u      0.000s      0.001w     12 calls
| JK: D                             :      0.000u      0.000s      0.000w     12 calls
| JK: USO2AO                        :      0.000u      0.000s      0.000w     12 calls
| JK: JK                            :      0.000u      0.000s      0.000w     12 calls
| | PK computes JK                  :      0.000u      0.000s      0.000w     12 calls
| JK: AO2USO                        :      0.000u      0.000s      0.000w     12 calls
HF: Form F                          :      0.000u      0.000s      0.000w     12 calls
HF: Form D                          :      0.000u      0.000s      0.000w     12 calls
HF: DIIS                            :      0.000u      0.000s      0.006w     11 calls
| DIISManager::add_entry            :      0.000u      0.000s      0.001w     11 calls
| DIISManager::extrapolate          :      0.000u      0.000s      0.001w     11 calls
| | bMatrix setup                   :      0.000u      0.000s      0.000w     11 calls
| | bMatrix pseudoinverse           :      0.000u      0.000s      0.000w     11 calls
| | New vector                      :      0.000u      0.000s      0.000w     11 calls
HF: Form C                          :      0.000u      0.000s      0.000w     11 calls

**************************************************************************************

Host: penguin

Timers On : Fri Jan 10 19:32:48 2020
Timers Off: Fri Jan 10 19:32:56 2020

Wall Time:        7.92 seconds

                                                       Time (seconds)
Module                                       User      System        Wall        Calls
Total PK formation time             :      0.050u      0.000s      0.032w      1 calls
HF: Form core H                     :      0.000u      0.000s      0.001w      1 calls
HF: Form S/X                        :      0.000u      0.000s      0.000w      1 calls
HF: Guess                           :      0.283u      0.000s      0.173w      1 calls
SAD Guess                           :      0.250u      0.000s      0.156w      1 calls
HF: Form G                          :      0.000u      0.000s      0.001w     12 calls
JK: D                               :      0.000u      0.000s      0.000w     12 calls
JK: USO2AO                          :      0.000u      0.000s      0.000w     12 calls
JK: JK                              :      0.000u      0.000s      0.000w     12 calls
PK computes JK                      :      0.000u      0.000s      0.000w     12 calls
JK: AO2USO                          :      0.000u      0.000s      0.000w     12 calls
HF: Form F                          :      0.000u      0.000s      0.000w     12 calls
HF: Form D                          :      0.000u      0.000s      0.000w     12 calls
HF: DIIS                            :      0.000u      0.000s      0.006w     11 calls
DIISManager::add_entry              :      0.000u      0.000s      0.001w     11 calls
DIISManager::extrapolate            :      0.000u      0.000s      0.001w     11 calls
bMatrix setup                       :      0.000u      0.000s      0.000w     11 calls
bMatrix pseudoinverse               :      0.000u      0.000s      0.000w     11 calls
New vector                          :      0.000u      0.000s      0.000w     11 calls
HF: Form C                          :      0.000u      0.000s      0.000w     11 calls

--------------------------------------------------------------------------------------
Total PK formation time             :      0.050u      0.000s      0.032w      1 calls
HF: Form core H                     :      0.000u      0.000s      0.001w      1 calls
HF: Form S/X                        :      0.000u      0.000s      0.000w      1 calls
HF: Guess                           :      0.283u      0.000s      0.173w      1 calls
| SAD Guess                         :      0.250u      0.000s      0.156w      1 calls
HF: Form G                          :      0.000u      0.000s      0.001w     12 calls
| JK: D                             :      0.000u      0.000s      0.000w     12 calls
| JK: USO2AO                        :      0.000u      0.000s      0.000w     12 calls
| JK: JK                            :      0.000u      0.000s      0.000w     12 calls
| | PK computes JK                  :      0.000u      0.000s      0.000w     12 calls
| JK: AO2USO                        :      0.000u      0.000s      0.000w     12 calls
HF: Form F                          :      0.000u      0.000s      0.000w     12 calls
HF: Form D                          :      0.000u      0.000s      0.000w     12 calls
HF: DIIS                            :      0.000u      0.000s      0.006w     11 calls
| DIISManager::add_entry            :      0.000u      0.000s      0.001w     11 calls
| DIISManager::extrapolate          :      0.000u      0.000s      0.001w     11 calls
| | bMatrix setup                   :      0.000u      0.000s      0.000w     11 calls
| | bMatrix pseudoinverse           :      0.000u      0.000s      0.000w     11 calls
| | New vector                      :      0.000u      0.000s      0.000w     11 calls
HF: Form C                          :      0.000u      0.000s      0.000w     11 calls

**************************************************************************************

Host: penguin

Timers On : Fri Jan 10 19:35:17 2020
Timers Off: Fri Jan 10 19:35:25 2020

Wall Time:        7.84 seconds

                                                       Time (seconds)
Module                                       User      System        Wall        Calls
Total PK formation time             :      0.067u      0.000s      0.033w      1 calls
HF: Form core H                     :      0.000u      0.000s      0.001w      1 calls
HF: Form S/X                        :      0.000u      0.000s      0.000w      1 calls
HF: Guess                           :      0.267u      0.000s      0.169w      1 calls
SAD Guess                           :      0.250u      0.000s      0.157w      1 calls
HF: Form G                          :      0.000u      0.000s      0.001w     12 calls
JK: D                               :      0.000u      0.000s      0.000w     12 calls
JK: USO2AO                          :      0.000u      0.000s      0.000w     12 calls
JK: JK                              :      0.000u      0.000s      0.000w     12 calls
PK computes JK                      :      0.000u      0.000s      0.000w     12 calls
JK: AO2USO                          :      0.000u      0.000s      0.000w     12 calls
HF: Form F                          :      0.000u      0.000s      0.000w     12 calls
HF: Form D                          :      0.000u      0.000s      0.000w     12 calls
HF: DIIS                            :      0.017u      0.000s      0.006w     11 calls
DIISManager::add_entry              :      0.000u      0.000s      0.001w     11 calls
DIISManager::extrapolate            :      0.017u      0.000s      0.001w     11 calls
bMatrix setup                       :      0.017u      0.000s      0.001w     11 calls
bMatrix pseudoinverse               :      0.000u      0.000s      0.000w     11 calls
New vector                          :      0.000u      0.000s      0.000w     11 calls
HF: Form C                          :      0.000u      0.000s      0.000w     11 calls

--------------------------------------------------------------------------------------
Total PK formation time             :      0.067u      0.000s      0.033w      1 calls
HF: Form core H                     :      0.000u      0.000s      0.001w      1 calls
HF: Form S/X                        :      0.000u      0.000s      0.000w      1 calls
HF: Guess                           :      0.267u      0.000s      0.169w      1 calls
| SAD Guess                         :      0.250u      0.000s      0.157w      1 calls
HF: Form G                          :      0.000u      0.000s      0.001w     12 calls
| JK: D                             :      0.000u      0.000s      0.000w     12 calls
| JK: USO2AO                        :      0.000u      0.000s      0.000w     12 calls
| JK: JK                            :      0.000u      0.000s      0.000w     12 calls
| | PK computes JK                  :      0.000u      0.000s      0.000w     12 calls
| JK: AO2USO                        :      0.000u      0.000s      0.000w     12 calls
HF: Form F                          :      0.000u      0.000s      0.000w     12 calls
HF: Form D                          :      0.000u      0.000s      0.000w     12 calls
HF: DIIS                            :      0.017u      0.000s      0.006w     11 calls
| DIISManager::add_entry            :      0.000u      0.000s      0.001w     11 calls
| DIISManager::extrapolate          :      0.017u      0.000s      0.001w     11 calls
| | bMatrix setup                   :      0.017u      0.000s      0.001w     11 calls
| | bMatrix pseudoinverse           :      0.000u      0.000s      0.000w     11 calls
| | New vector                      :      0.000u      0.000s      0.000w     11 calls
HF: Form C                          :      0.000u      0.000s      0.000w     11 calls

**************************************************************************************

Host: penguin

Timers On : Fri Jan 10 19:36:29 2020
Timers Off: Fri Jan 10 19:36:36 2020

Wall Time:        7.56 seconds

                                                       Time (seconds)
Module                                       User      System        Wall        Calls
Total PK formation time             :      0.050u      0.000s      0.029w      1 calls
HF: Form core H                     :      0.000u      0.000s      0.001w      1 calls
HF: Form S/X                        :      0.000u      0.000s      0.000w      1 calls
HF: Guess                           :      0.283u      0.000s      0.165w      1 calls
SAD Guess                           :      0.267u      0.000s      0.154w      1 calls
HF: Form G                          :      0.000u      0.000s      0.000w     12 calls
JK: D                               :      0.000u      0.000s      0.000w     12 calls
JK: USO2AO                          :      0.000u      0.000s      0.000w     12 calls
JK: JK                              :      0.000u      0.000s      0.000w     12 calls
PK computes JK                      :      0.000u      0.000s      0.000w     12 calls
JK: AO2USO                          :      0.000u      0.000s      0.000w     12 calls
HF: Form F                          :      0.000u      0.000s      0.000w     12 calls
HF: Form D                          :      0.000u      0.000s      0.000w     12 calls
HF: DIIS                            :      0.033u      0.000s      0.006w     11 calls
DIISManager::add_entry              :      0.017u      0.000s      0.001w     11 calls
DIISManager::extrapolate            :      0.000u      0.000s      0.001w     11 calls
bMatrix setup                       :      0.000u      0.000s      0.000w     11 calls
bMatrix pseudoinverse               :      0.000u      0.000s      0.000w     11 calls
New vector                          :      0.000u      0.000s      0.000w     11 calls
HF: Form C                          :      0.000u      0.000s      0.000w     11 calls

--------------------------------------------------------------------------------------
Total PK formation time             :      0.050u      0.000s      0.029w      1 calls
HF: Form core H                     :      0.000u      0.000s      0.001w      1 calls
HF: Form S/X                        :      0.000u      0.000s      0.000w      1 calls
HF: Guess                           :      0.283u      0.000s      0.165w      1 calls
| SAD Guess                         :      0.267u      0.000s      0.154w      1 calls
HF: Form G                          :      0.000u      0.000s      0.000w     12 calls
| JK: D                             :      0.000u      0.000s      0.000w     12 calls
| JK: USO2AO                        :      0.000u      0.000s      0.000w     12 calls
| JK: JK                            :      0.000u      0.000s      0.000w     12 calls
| | PK computes JK                  :      0.000u      0.000s      0.000w     12 calls
| JK: AO2USO                        :      0.000u      0.000s      0.000w     12 calls
HF: Form F                          :      0.000u      0.000s      0.000w     12 calls
HF: Form D                          :      0.000u      0.000s      0.000w     12 calls
HF: DIIS                            :      0.033u      0.000s      0.006w     11 calls
| DIISManager::add_entry            :      0.017u      0.000s      0.001w     11 calls
| DIISManager::extrapolate          :      0.000u      0.000s      0.001w     11 calls
| | bMatrix setup                   :      0.000u      0.000s      0.000w     11 calls
| | bMatrix pseudoinverse           :      0.000u      0.000s      0.000w     11 calls
| | New vector                      :      0.000u      0.000s      0.000w     11 calls
HF: Form C                          :      0.000u      0.000s      0.000w     11 calls

**************************************************************************************

Host: penguin

Timers On : Fri Jan 10 19:37:35 2020
Timers Off: Fri Jan 10 19:37:43 2020

Wall Time:        7.79 seconds

                                                       Time (seconds)
Module                                       User      System        Wall        Calls
Total PK formation time             :      0.050u      0.000s      0.032w      1 calls
HF: Form core H                     :      0.000u      0.000s      0.001w      1 calls
HF: Form S/X                        :      0.000u      0.000s      0.000w      1 calls
HF: Guess                           :      0.283u      0.000s      0.173w      1 calls
SAD Guess                           :      0.267u      0.000s      0.162w      1 calls
HF: Form G                          :      0.000u      0.000s      0.001w     12 calls
JK: D                               :      0.000u      0.000s      0.000w     12 calls
JK: USO2AO                          :      0.000u      0.000s      0.000w     12 calls
JK: JK                              :      0.000u      0.000s      0.000w     12 calls
PK computes JK                      :      0.000u      0.000s      0.000w     12 calls
JK: AO2USO                          :      0.000u      0.000s      0.000w     12 calls
HF: Form F                          :      0.000u      0.000s      0.000w     12 calls
HF: Form D                          :      0.000u      0.000s      0.000w     12 calls
HF: DIIS                            :      0.000u      0.000s      0.006w     11 calls
DIISManager::add_entry              :      0.000u      0.000s      0.001w     11 calls
DIISManager::extrapolate            :      0.000u      0.000s      0.001w     11 calls
bMatrix setup                       :      0.000u      0.000s      0.000w     11 calls
bMatrix pseudoinverse               :      0.000u      0.000s      0.000w     11 calls
New vector                          :      0.000u      0.000s      0.000w     11 calls
HF: Form C                          :      0.000u      0.000s      0.000w     11 calls

--------------------------------------------------------------------------------------
Total PK formation time             :      0.050u      0.000s      0.032w      1 calls
HF: Form core H                     :      0.000u      0.000s      0.001w      1 calls
HF: Form S/X                        :      0.000u      0.000s      0.000w      1 calls
HF: Guess                           :      0.283u      0.000s      0.173w      1 calls
| SAD Guess                         :      0.267u      0.000s      0.162w      1 calls
HF: Form G                          :      0.000u      0.000s      0.001w     12 calls
| JK: D                             :      0.000u      0.000s      0.000w     12 calls
| JK: USO2AO                        :      0.000u      0.000s      0.000w     12 calls
| JK: JK                            :      0.000u      0.000s      0.000w     12 calls
| | PK computes JK                  :      0.000u      0.000s      0.000w     12 calls
| JK: AO2USO                        :      0.000u      0.000s      0.000w     12 calls
HF: Form F                          :      0.000u      0.000s      0.000w     12 calls
HF: Form D                          :      0.000u      0.000s      0.000w     12 calls
HF: DIIS                            :      0.000u      0.000s      0.006w     11 calls
| DIISManager::add_entry            :      0.000u      0.000s      0.001w     11 calls
| DIISManager::extrapolate          :      0.000u      0.000s      0.001w     11 calls
| | bMatrix setup                   :      0.000u      0.000s      0.000w     11 calls
| | bMatrix pseudoinverse           :      0.000u      0.000s      0.000w     11 calls
| | New vector                      :      0.000u      0.000s      0.000w     11 calls
HF: Form C                          :      0.000u      0.000s      0.000w     11 calls

**************************************************************************************

Host: penguin

Timers On : Fri Jan 10 19:38:10 2020
Timers Off: Fri Jan 10 19:38:17 2020

Wall Time:        7.85 seconds

                                                       Time (seconds)
Module                                       User      System        Wall        Calls
Total PK formation time             :      0.067u      0.000s      0.031w      1 calls
HF: Form core H                     :      0.000u      0.000s      0.001w      1 calls
HF: Form S/X                        :      0.000u      0.000s      0.000w      1 calls
HF: Guess                           :      0.283u      0.000s      0.172w      1 calls
SAD Guess                           :      0.267u      0.000s      0.160w      1 calls
HF: Form G                          :      0.000u      0.000s      0.001w     12 calls
JK: D                               :      0.000u      0.000s      0.000w     12 calls
JK: USO2AO                          :      0.000u      0.000s      0.000w     12 calls
JK: JK                              :      0.000u      0.000s      0.000w     12 calls
PK computes JK                      :      0.000u      0.000s      0.000w     12 calls
JK: AO2USO                          :      0.000u      0.000s      0.000w     12 calls
HF: Form F                          :      0.000u      0.000s      0.000w     12 calls
HF: Form D                          :      0.000u      0.000s      0.000w     12 calls
HF: DIIS                            :      0.000u      0.000s      0.007w     11 calls
DIISManager::add_entry              :      0.000u      0.000s      0.001w     11 calls
DIISManager::extrapolate            :      0.000u      0.000s      0.001w     11 calls
bMatrix setup                       :      0.000u      0.000s      0.000w     11 calls
bMatrix pseudoinverse               :      0.000u      0.000s      0.000w     11 calls
New vector                          :      0.000u      0.000s      0.000w     11 calls
HF: Form C                          :      0.000u      0.000s      0.000w     11 calls

--------------------------------------------------------------------------------------
Total PK formation time             :      0.067u      0.000s      0.031w      1 calls
HF: Form core H                     :      0.000u      0.000s      0.001w      1 calls
HF: Form S/X                        :      0.000u      0.000s      0.000w      1 calls
HF: Guess                           :      0.283u      0.000s      0.172w      1 calls
| SAD Guess                         :      0.267u      0.000s      0.160w      1 calls
HF: Form G                          :      0.000u      0.000s      0.001w     12 calls
| JK: D                             :      0.000u      0.000s      0.000w     12 calls
| JK: USO2AO                        :      0.000u      0.000s      0.000w     12 calls
| JK: JK                            :      0.000u      0.000s      0.000w     12 calls
| | PK computes JK                  :      0.000u      0.000s      0.000w     12 calls
| JK: AO2USO                        :      0.000u      0.000s      0.000w     12 calls
HF: Form F                          :      0.000u      0.000s      0.000w     12 calls
HF: Form D                          :      0.000u      0.000s      0.000w     12 calls
HF: DIIS                            :      0.000u      0.000s      0.007w     11 calls
| DIISManager::add_entry            :      0.000u      0.000s      0.001w     11 calls
| DIISManager::extrapolate          :      0.000u      0.000s      0.001w     11 calls
| | bMatrix setup                   :      0.000u      0.000s      0.000w     11 calls
| | bMatrix pseudoinverse           :      0.000u      0.000s      0.000w     11 calls
| | New vector                      :      0.000u      0.000s      0.000w     11 calls
HF: Form C                          :      0.000u      0.000s      0.000w     11 calls

**************************************************************************************

Host: penguin

Timers On : Fri Jan 10 19:38:33 2020
Timers Off: Fri Jan 10 19:39:53 2020

Wall Time:       79.60 seconds

                                                       Time (seconds)
Module                                       User      System        Wall        Calls
Total PK formation time             :      0.450u      0.000s      0.259w      8 calls
HF: Form core H                     :      0.033u      0.017s      0.009w      8 calls
HF: Form S/X                        :      0.000u      0.000s      0.001w      8 calls
HF: Guess                           :      2.167u      0.017s      1.322w      8 calls
SAD Guess                           :      2.000u      0.017s      1.227w      8 calls
HF: Form G                          :      0.000u      0.000s      0.005w     88 calls
JK: D                               :      0.000u      0.000s      0.001w     88 calls
JK: USO2AO                          :      0.000u      0.000s      0.000w     88 calls
JK: JK                              :      0.000u      0.000s      0.001w     88 calls
PK computes JK                      :      0.000u      0.000s      0.001w     88 calls
JK: AO2USO                          :      0.000u      0.000s      0.000w     88 calls
HF: Form F                          :      0.000u      0.000s      0.001w     88 calls
HF: Form D                          :      0.000u      0.000s      0.001w     88 calls
HF: DIIS                            :      0.100u      0.000s      0.060w     80 calls
DIISManager::add_entry              :      0.017u      0.000s      0.007w     80 calls
DIISManager::extrapolate            :      0.033u      0.000s      0.015w     80 calls
bMatrix setup                       :      0.017u      0.000s      0.004w     80 calls
bMatrix pseudoinverse               :      0.000u      0.000s      0.009w     80 calls
New vector                          :      0.017u      0.000s      0.002w     80 calls
HF: Form C                          :      0.000u      0.000s      0.003w     80 calls

--------------------------------------------------------------------------------------
Total PK formation time             :      0.450u      0.000s      0.259w      8 calls
HF: Form core H                     :      0.033u      0.017s      0.009w      8 calls
HF: Form S/X                        :      0.000u      0.000s      0.001w      8 calls
HF: Guess                           :      2.167u      0.017s      1.322w      8 calls
| SAD Guess                         :      2.000u      0.017s      1.227w      8 calls
HF: Form G                          :      0.000u      0.000s      0.005w     88 calls
| JK: D                             :      0.000u      0.000s      0.001w     88 calls
| JK: USO2AO                        :      0.000u      0.000s      0.000w     88 calls
| JK: JK                            :      0.000u      0.000s      0.001w     88 calls
| | PK computes JK                  :      0.000u      0.000s      0.001w     88 calls
| JK: AO2USO                        :      0.000u      0.000s      0.000w     88 calls
HF: Form F                          :      0.000u      0.000s      0.001w     88 calls
HF: Form D                          :      0.000u      0.000s      0.001w     88 calls
HF: DIIS                            :      0.100u      0.000s      0.060w     80 calls
| DIISManager::add_entry            :      0.017u      0.000s      0.007w     80 calls
| DIISManager::extrapolate          :      0.033u      0.000s      0.015w     80 calls
| | bMatrix setup                   :      0.017u      0.000s      0.004w     80 calls
| | bMatrix pseudoinverse           :      0.000u      0.000s      0.009w     80 calls
| | New vector                      :      0.017u      0.000s      0.002w     80 calls
HF: Form C                          :      0.000u      0.000s      0.003w     80 calls

**************************************************************************************

Host: penguin

Timers On : Fri Jan 10 19:40:57 2020
Timers Off: Fri Jan 10 19:41:10 2020

Wall Time:       13.01 seconds

                                                       Time (seconds)
Module                                       User      System        Wall        Calls
Total PK formation time             :      0.050u      0.000s      0.032w      1 calls
HF: Form core H                     :      0.000u      0.000s      0.001w      1 calls
HF: Form S/X                        :      0.000u      0.000s      0.000w      1 calls
HF: Guess                           :      0.283u      0.000s      0.169w      1 calls
SAD Guess                           :      0.267u      0.000s      0.158w      1 calls
HF: Form G                          :      0.000u      0.000s      0.001w     12 calls
JK: D                               :      0.000u      0.000s      0.000w     12 calls
JK: USO2AO                          :      0.000u      0.000s      0.000w     12 calls
JK: JK                              :      0.000u      0.000s      0.000w     12 calls
PK computes JK                      :      0.000u      0.000s      0.000w     12 calls
JK: AO2USO                          :      0.000u      0.000s      0.000w     12 calls
HF: Form F                          :      0.000u      0.000s      0.000w     12 calls
HF: Form D                          :      0.000u      0.000s      0.000w     12 calls
HF: DIIS                            :      0.000u      0.000s      0.006w     11 calls
DIISManager::add_entry              :      0.000u      0.000s      0.001w     11 calls
DIISManager::extrapolate            :      0.000u      0.000s      0.001w     11 calls
bMatrix setup                       :      0.000u      0.000s      0.000w     11 calls
bMatrix pseudoinverse               :      0.000u      0.000s      0.000w     11 calls
New vector                          :      0.000u      0.000s      0.000w     11 calls
HF: Form C                          :      0.000u      0.000s      0.000w     11 calls

--------------------------------------------------------------------------------------
Total PK formation time             :      0.050u      0.000s      0.032w      1 calls
HF: Form core H                     :      0.000u      0.000s      0.001w      1 calls
HF: Form S/X                        :      0.000u      0.000s      0.000w      1 calls
HF: Guess                           :      0.283u      0.000s      0.169w      1 calls
| SAD Guess                         :      0.267u      0.000s      0.158w      1 calls
HF: Form G                          :      0.000u      0.000s      0.001w     12 calls
| JK: D                             :      0.000u      0.000s      0.000w     12 calls
| JK: USO2AO                        :      0.000u      0.000s      0.000w     12 calls
| JK: JK                            :      0.000u      0.000s      0.000w     12 calls
| | PK computes JK                  :      0.000u      0.000s      0.000w     12 calls
| JK: AO2USO                        :      0.000u      0.000s      0.000w     12 calls
HF: Form F                          :      0.000u      0.000s      0.000w     12 calls
HF: Form D                          :      0.000u      0.000s      0.000w     12 calls
HF: DIIS                            :      0.000u      0.000s      0.006w     11 calls
| DIISManager::add_entry            :      0.000u      0.000s      0.001w     11 calls
| DIISManager::extrapolate          :      0.000u      0.000s      0.001w     11 calls
| | bMatrix setup                   :      0.000u      0.000s      0.000w     11 calls
| | bMatrix pseudoinverse           :      0.000u      0.000s      0.000w     11 calls
| | New vector                      :      0.000u      0.000s      0.000w     11 calls
HF: Form C                          :      0.000u      0.000s      0.000w     11 calls

**************************************************************************************

Host: penguin

Timers On : Fri Jan 10 19:42:04 2020
Timers Off: Fri Jan 10 19:42:17 2020

Wall Time:       13.22 seconds

                                                       Time (seconds)
Module                                       User      System        Wall        Calls
Total PK formation time             :      0.067u      0.000s      0.036w      1 calls
HF: Form core H                     :      0.000u      0.000s      0.001w      1 calls
HF: Form S/X                        :      0.000u      0.000s      0.000w      1 calls
HF: Guess                           :      0.300u      0.017s      0.178w      1 calls
SAD Guess                           :      0.283u      0.017s      0.166w      1 calls
HF: Form G                          :      0.000u      0.000s      0.001w     12 calls
JK: D                               :      0.000u      0.000s      0.000w     12 calls
JK: USO2AO                          :      0.000u      0.000s      0.000w     12 calls
JK: JK                              :      0.000u      0.000s      0.000w     12 calls
PK computes JK                      :      0.000u      0.000s      0.000w     12 calls
JK: AO2USO                          :      0.000u      0.000s      0.000w     12 calls
HF: Form F                          :      0.000u      0.000s      0.000w     12 calls
HF: Form D                          :      0.000u      0.000s      0.000w     12 calls
HF: DIIS                            :      0.000u      0.000s      0.006w     11 calls
DIISManager::add_entry              :      0.000u      0.000s      0.001w     11 calls
DIISManager::extrapolate            :      0.000u      0.000s      0.001w     11 calls
bMatrix setup                       :      0.000u      0.000s      0.000w     11 calls
bMatrix pseudoinverse               :      0.000u      0.000s      0.000w     11 calls
New vector                          :      0.000u      0.000s      0.000w     11 calls
HF: Form C                          :      0.000u      0.000s      0.000w     11 calls

--------------------------------------------------------------------------------------
Total PK formation time             :      0.067u      0.000s      0.036w      1 calls
HF: Form core H                     :      0.000u      0.000s      0.001w      1 calls
HF: Form S/X                        :      0.000u      0.000s      0.000w      1 calls
HF: Guess                           :      0.300u      0.017s      0.178w      1 calls
| SAD Guess                         :      0.283u      0.017s      0.166w      1 calls
HF: Form G                          :      0.000u      0.000s      0.001w     12 calls
| JK: D                             :      0.000u      0.000s      0.000w     12 calls
| JK: USO2AO                        :      0.000u      0.000s      0.000w     12 calls
| JK: JK                            :      0.000u      0.000s      0.000w     12 calls
| | PK computes JK                  :      0.000u      0.000s      0.000w     12 calls
| JK: AO2USO                        :      0.000u      0.000s      0.000w     12 calls
HF: Form F                          :      0.000u      0.000s      0.000w     12 calls
HF: Form D                          :      0.000u      0.000s      0.000w     12 calls
HF: DIIS                            :      0.000u      0.000s      0.006w     11 calls
| DIISManager::add_entry            :      0.000u      0.000s      0.001w     11 calls
| DIISManager::extrapolate          :      0.000u      0.000s      0.001w     11 calls
| | bMatrix setup                   :      0.000u      0.000s      0.000w     11 calls
| | bMatrix pseudoinverse           :      0.000u      0.000s      0.000w     11 calls
| | New vector                      :      0.000u      0.000s      0.000w     11 calls
HF: Form C                          :      0.000u      0.000s      0.000w     11 calls

**************************************************************************************

Host: penguin

Timers On : Fri Jan 10 19:44:54 2020
Timers Off: Fri Jan 10 19:45:07 2020

Wall Time:       13.26 seconds

                                                       Time (seconds)
Module                                       User      System        Wall        Calls
Total PK formation time             :      0.050u      0.000s      0.031w      1 calls
HF: Form core H                     :      0.000u      0.000s      0.001w      1 calls
HF: Form S/X                        :      0.000u      0.000s      0.000w      1 calls
HF: Guess                           :      0.283u      0.000s      0.174w      1 calls
SAD Guess                           :      0.267u      0.000s      0.163w      1 calls
HF: Form G                          :      0.017u      0.000s      0.001w     12 calls
JK: D                               :      0.000u      0.000s      0.000w     12 calls
JK: USO2AO                          :      0.000u      0.000s      0.000w     12 calls
JK: JK                              :      0.017u      0.000s      0.000w     12 calls
PK computes JK                      :      0.017u      0.000s      0.000w     12 calls
JK: AO2USO                          :      0.000u      0.000s      0.000w     12 calls
HF: Form F                          :      0.000u      0.000s      0.000w     12 calls
HF: Form D                          :      0.000u      0.000s      0.000w     12 calls
HF: DIIS                            :      0.000u      0.000s      0.006w     11 calls
DIISManager::add_entry              :      0.000u      0.000s      0.001w     11 calls
DIISManager::extrapolate            :      0.000u      0.000s      0.001w     11 calls
bMatrix setup                       :      0.000u      0.000s      0.000w     11 calls
bMatrix pseudoinverse               :      0.000u      0.000s      0.000w     11 calls
New vector                          :      0.000u      0.000s      0.000w     11 calls
HF: Form C                          :      0.000u      0.000s      0.000w     11 calls

--------------------------------------------------------------------------------------
Total PK formation time             :      0.050u      0.000s      0.031w      1 calls
HF: Form core H                     :      0.000u      0.000s      0.001w      1 calls
HF: Form S/X                        :      0.000u      0.000s      0.000w      1 calls
HF: Guess                           :      0.283u      0.000s      0.174w      1 calls
| SAD Guess                         :      0.267u      0.000s      0.163w      1 calls
HF: Form G                          :      0.017u      0.000s      0.001w     12 calls
| JK: D                             :      0.000u      0.000s      0.000w     12 calls
| JK: USO2AO                        :      0.000u      0.000s      0.000w     12 calls
| JK: JK                            :      0.017u      0.000s      0.000w     12 calls
| | PK computes JK                  :      0.017u      0.000s      0.000w     12 calls
| JK: AO2USO                        :      0.000u      0.000s      0.000w     12 calls
HF: Form F                          :      0.000u      0.000s      0.000w     12 calls
HF: Form D                          :      0.000u      0.000s      0.000w     12 calls
HF: DIIS                            :      0.000u      0.000s      0.006w     11 calls
| DIISManager::add_entry            :      0.000u      0.000s      0.001w     11 calls
| DIISManager::extrapolate          :      0.000u      0.000s      0.001w     11 calls
| | bMatrix setup                   :      0.000u      0.000s      0.000w     11 calls
| | bMatrix pseudoinverse           :      0.000u      0.000s      0.000w     11 calls
| | New vector                      :      0.000u      0.000s      0.000w     11 calls
HF: Form C                          :      0.000u      0.000s      0.000w     11 calls

**************************************************************************************

Host: penguin

Timers On : Fri Jan 10 19:46:29 2020
Timers Off: Fri Jan 10 19:46:43 2020

Wall Time:       13.66 seconds

                                                       Time (seconds)
Module                                       User      System        Wall        Calls
Total PK formation time             :      0.050u      0.000s      0.033w      1 calls
HF: Form core H                     :      0.000u      0.000s      0.001w      1 calls
HF: Form S/X                        :      0.000u      0.000s      0.000w      1 calls
HF: Guess                           :      0.300u      0.000s      0.174w      1 calls
SAD Guess                           :      0.267u      0.000s      0.162w      1 calls
HF: Form G                          :      0.000u      0.000s      0.001w     12 calls
JK: D                               :      0.000u      0.000s      0.000w     12 calls
JK: USO2AO                          :      0.000u      0.000s      0.000w     12 calls
JK: JK                              :      0.000u      0.000s      0.000w     12 calls
PK computes JK                      :      0.000u      0.000s      0.000w     12 calls
JK: AO2USO                          :      0.000u      0.000s      0.000w     12 calls
HF: Form F                          :      0.000u      0.000s      0.000w     12 calls
HF: Form D                          :      0.000u      0.000s      0.000w     12 calls
HF: DIIS                            :      0.000u      0.000s      0.006w     11 calls
DIISManager::add_entry              :      0.000u      0.000s      0.001w     11 calls
DIISManager::extrapolate            :      0.000u      0.000s      0.001w     11 calls
bMatrix setup                       :      0.000u      0.000s      0.000w     11 calls
bMatrix pseudoinverse               :      0.000u      0.000s      0.000w     11 calls
New vector                          :      0.000u      0.000s      0.000w     11 calls
HF: Form C                          :      0.000u      0.000s      0.000w     11 calls

--------------------------------------------------------------------------------------
Total PK formation time             :      0.050u      0.000s      0.033w      1 calls
HF: Form core H                     :      0.000u      0.000s      0.001w      1 calls
HF: Form S/X                        :      0.000u      0.000s      0.000w      1 calls
HF: Guess                           :      0.300u      0.000s      0.174w      1 calls
| SAD Guess                         :      0.267u      0.000s      0.162w      1 calls
HF: Form G                          :      0.000u      0.000s      0.001w     12 calls
| JK: D                             :      0.000u      0.000s      0.000w     12 calls
| JK: USO2AO                        :      0.000u      0.000s      0.000w     12 calls
| JK: JK                            :      0.000u      0.000s      0.000w     12 calls
| | PK computes JK                  :      0.000u      0.000s      0.000w     12 calls
| JK: AO2USO                        :      0.000u      0.000s      0.000w     12 calls
HF: Form F                          :      0.000u      0.000s      0.000w     12 calls
HF: Form D                          :      0.000u      0.000s      0.000w     12 calls
HF: DIIS                            :      0.000u      0.000s      0.006w     11 calls
| DIISManager::add_entry            :      0.000u      0.000s      0.001w     11 calls
| DIISManager::extrapolate          :      0.000u      0.000s      0.001w     11 calls
| | bMatrix setup                   :      0.000u      0.000s      0.000w     11 calls
| | bMatrix pseudoinverse           :      0.000u      0.000s      0.000w     11 calls
| | New vector                      :      0.000u      0.000s      0.000w     11 calls
HF: Form C                          :      0.000u      0.000s      0.000w     11 calls

**************************************************************************************

Host: penguin

Timers On : Fri Jan 10 19:47:46 2020
Timers Off: Fri Jan 10 19:48:00 2020

Wall Time:       13.67 seconds

                                                       Time (seconds)
Module                                       User      System        Wall        Calls
Total PK formation time             :      0.067u      0.000s      0.031w      1 calls
HF: Form core H                     :      0.000u      0.000s      0.001w      1 calls
HF: Form S/X                        :      0.000u      0.000s      0.000w      1 calls
HF: Guess                           :      0.283u      0.000s      0.175w      1 calls
SAD Guess                           :      0.267u      0.000s      0.163w      1 calls
HF: Form G                          :      0.000u      0.000s      0.001w     12 calls
JK: D                               :      0.000u      0.000s      0.000w     12 calls
JK: USO2AO                          :      0.000u      0.000s      0.000w     12 calls
JK: JK                              :      0.000u      0.000s      0.000w     12 calls
PK computes JK                      :      0.000u      0.000s      0.000w     12 calls
JK: AO2USO                          :      0.000u      0.000s      0.000w     12 calls
HF: Form F                          :      0.000u      0.000s      0.000w     12 calls
HF: Form D                          :      0.000u      0.000s      0.000w     12 calls
HF: DIIS                            :      0.000u      0.000s      0.006w     11 calls
DIISManager::add_entry              :      0.000u      0.000s      0.001w     11 calls
DIISManager::extrapolate            :      0.000u      0.000s      0.001w     11 calls
bMatrix setup                       :      0.000u      0.000s      0.000w     11 calls
bMatrix pseudoinverse               :      0.000u      0.000s      0.000w     11 calls
New vector                          :      0.000u      0.000s      0.000w     11 calls
HF: Form C                          :      0.000u      0.000s      0.000w     11 calls

--------------------------------------------------------------------------------------
Total PK formation time             :      0.067u      0.000s      0.031w      1 calls
HF: Form core H                     :      0.000u      0.000s      0.001w      1 calls
HF: Form S/X                        :      0.000u      0.000s      0.000w      1 calls
HF: Guess                           :      0.283u      0.000s      0.175w      1 calls
| SAD Guess                         :      0.267u      0.000s      0.163w      1 calls
HF: Form G                          :      0.000u      0.000s      0.001w     12 calls
| JK: D                             :      0.000u      0.000s      0.000w     12 calls
| JK: USO2AO                        :      0.000u      0.000s      0.000w     12 calls
| JK: JK                            :      0.000u      0.000s      0.000w     12 calls
| | PK computes JK                  :      0.000u      0.000s      0.000w     12 calls
| JK: AO2USO                        :      0.000u      0.000s      0.000w     12 calls
HF: Form F                          :      0.000u      0.000s      0.000w     12 calls
HF: Form D                          :      0.000u      0.000s      0.000w     12 calls
HF: DIIS                            :      0.000u      0.000s      0.006w     11 calls
| DIISManager::add_entry            :      0.000u      0.000s      0.001w     11 calls
| DIISManager::extrapolate          :      0.000u      0.000s      0.001w     11 calls
| | bMatrix setup                   :      0.000u      0.000s      0.000w     11 calls
| | bMatrix pseudoinverse           :      0.000u      0.000s      0.000w     11 calls
| | New vector                      :      0.000u      0.000s      0.000w     11 calls
HF: Form C                          :      0.000u      0.000s      0.000w     11 calls

**************************************************************************************

Host: penguin

Timers On : Fri Jan 10 19:49:25 2020
Timers Off: Fri Jan 10 19:49:38 2020

Wall Time:       13.56 seconds

                                                       Time (seconds)
Module                                       User      System        Wall        Calls
Total PK formation time             :      0.050u      0.000s      0.033w      1 calls
HF: Form core H                     :      0.000u      0.000s      0.001w      1 calls
HF: Form S/X                        :      0.000u      0.000s      0.000w      1 calls
HF: Guess                           :      0.300u      0.000s      0.177w      1 calls
SAD Guess                           :      0.267u      0.000s      0.165w      1 calls
HF: Form G                          :      0.000u      0.000s      0.000w     12 calls
JK: D                               :      0.000u      0.000s      0.000w     12 calls
JK: USO2AO                          :      0.000u      0.000s      0.000w     12 calls
JK: JK                              :      0.000u      0.000s      0.000w     12 calls
PK computes JK                      :      0.000u      0.000s      0.000w     12 calls
JK: AO2USO                          :      0.000u      0.000s      0.000w     12 calls
HF: Form F                          :      0.000u      0.000s      0.000w     12 calls
HF: Form D                          :      0.000u      0.000s      0.000w     12 calls
HF: DIIS                            :      0.000u      0.000s      0.006w     11 calls
DIISManager::add_entry              :      0.000u      0.000s      0.001w     11 calls
DIISManager::extrapolate            :      0.000u      0.000s      0.001w     11 calls
bMatrix setup                       :      0.000u      0.000s      0.000w     11 calls
bMatrix pseudoinverse               :      0.000u      0.000s      0.000w     11 calls
New vector                          :      0.000u      0.000s      0.000w     11 calls
HF: Form C                          :      0.000u      0.000s      0.000w     11 calls

--------------------------------------------------------------------------------------
Total PK formation time             :      0.050u      0.000s      0.033w      1 calls
HF: Form core H                     :      0.000u      0.000s      0.001w      1 calls
HF: Form S/X                        :      0.000u      0.000s      0.000w      1 calls
HF: Guess                           :      0.300u      0.000s      0.177w      1 calls
| SAD Guess                         :      0.267u      0.000s      0.165w      1 calls
HF: Form G                          :      0.000u      0.000s      0.000w     12 calls
| JK: D                             :      0.000u      0.000s      0.000w     12 calls
| JK: USO2AO                        :      0.000u      0.000s      0.000w     12 calls
| JK: JK                            :      0.000u      0.000s      0.000w     12 calls
| | PK computes JK                  :      0.000u      0.000s      0.000w     12 calls
| JK: AO2USO                        :      0.000u      0.000s      0.000w     12 calls
HF: Form F                          :      0.000u      0.000s      0.000w     12 calls
HF: Form D                          :      0.000u      0.000s      0.000w     12 calls
HF: DIIS                            :      0.000u      0.000s      0.006w     11 calls
| DIISManager::add_entry            :      0.000u      0.000s      0.001w     11 calls
| DIISManager::extrapolate          :      0.000u      0.000s      0.001w     11 calls
| | bMatrix setup                   :      0.000u      0.000s      0.000w     11 calls
| | bMatrix pseudoinverse           :      0.000u      0.000s      0.000w     11 calls
| | New vector                      :      0.000u      0.000s      0.000w     11 calls
HF: Form C                          :      0.000u      0.000s      0.000w     11 calls

**************************************************************************************

Host: penguin

Timers On : Fri Jan 10 19:51:40 2020
Timers Off: Fri Jan 10 19:51:54 2020

Wall Time:       13.41 seconds

                                                       Time (seconds)
Module                                       User      System        Wall        Calls
Total PK formation time             :      0.033u      0.000s      0.029w      1 calls
HF: Form core H                     :      0.017u      0.000s      0.001w      1 calls
HF: Form S/X                        :      0.000u      0.000s      0.000w      1 calls
HF: Guess                           :      0.283u      0.000s      0.171w      1 calls
SAD Guess                           :      0.267u      0.000s      0.160w      1 calls
HF: Form G                          :      0.000u      0.000s      0.001w     12 calls
JK: D                               :      0.000u      0.000s      0.000w     12 calls
JK: USO2AO                          :      0.000u      0.000s      0.000w     12 calls
JK: JK                              :      0.000u      0.000s      0.000w     12 calls
PK computes JK                      :      0.000u      0.000s      0.000w     12 calls
JK: AO2USO                          :      0.000u      0.000s      0.000w     12 calls
HF: Form F                          :      0.000u      0.000s      0.000w     12 calls
HF: Form D                          :      0.000u      0.000s      0.000w     12 calls
HF: DIIS                            :      0.000u      0.000s      0.006w     11 calls
DIISManager::add_entry              :      0.000u      0.000s      0.001w     11 calls
DIISManager::extrapolate            :      0.000u      0.000s      0.001w     11 calls
bMatrix setup                       :      0.000u      0.000s      0.000w     11 calls
bMatrix pseudoinverse               :      0.000u      0.000s      0.000w     11 calls
New vector                          :      0.000u      0.000s      0.000w     11 calls
HF: Form C                          :      0.017u      0.000s      0.000w     11 calls

--------------------------------------------------------------------------------------
Total PK formation time             :      0.033u      0.000s      0.029w      1 calls
HF: Form core H                     :      0.017u      0.000s      0.001w      1 calls
HF: Form S/X                        :      0.000u      0.000s      0.000w      1 calls
HF: Guess                           :      0.283u      0.000s      0.171w      1 calls
| SAD Guess                         :      0.267u      0.000s      0.160w      1 calls
HF: Form G                          :      0.000u      0.000s      0.001w     12 calls
| JK: D                             :      0.000u      0.000s      0.000w     12 calls
| JK: USO2AO                        :      0.000u      0.000s      0.000w     12 calls
| JK: JK                            :      0.000u      0.000s      0.000w     12 calls
| | PK computes JK                  :      0.000u      0.000s      0.000w     12 calls
| JK: AO2USO                        :      0.000u      0.000s      0.000w     12 calls
HF: Form F                          :      0.000u      0.000s      0.000w     12 calls
HF: Form D                          :      0.000u      0.000s      0.000w     12 calls
HF: DIIS                            :      0.000u      0.000s      0.006w     11 calls
| DIISManager::add_entry            :      0.000u      0.000s      0.001w     11 calls
| DIISManager::extrapolate          :      0.000u      0.000s      0.001w     11 calls
| | bMatrix setup                   :      0.000u      0.000s      0.000w     11 calls
| | bMatrix pseudoinverse           :      0.000u      0.000s      0.000w     11 calls
| | New vector                      :      0.000u      0.000s      0.000w     11 calls
HF: Form C                          :      0.017u      0.000s      0.000w     11 calls

**************************************************************************************

Host: penguin

Timers On : Fri Jan 10 19:54:01 2020
Timers Off: Fri Jan 10 19:54:14 2020

Wall Time:       12.89 seconds

                                                       Time (seconds)
Module                                       User      System        Wall        Calls
Total PK formation time             :      0.050u      0.000s      0.032w      1 calls
HF: Form core H                     :      0.000u      0.000s      0.001w      1 calls
HF: Form S/X                        :      0.000u      0.000s      0.000w      1 calls
HF: Guess                           :      0.283u      0.000s      0.168w      1 calls
SAD Guess                           :      0.267u      0.000s      0.157w      1 calls
HF: Form G                          :      0.000u      0.000s      0.001w     12 calls
JK: D                               :      0.000u      0.000s      0.000w     12 calls
JK: USO2AO                          :      0.000u      0.000s      0.000w     12 calls
JK: JK                              :      0.000u      0.000s      0.000w     12 calls
PK computes JK                      :      0.000u      0.000s      0.000w     12 calls
JK: AO2USO                          :      0.000u      0.000s      0.000w     12 calls
[...]
| SAD Guess                         :      2.300u      0.017s      1.394w      8 calls
HF: Form G                          :      0.000u      0.000s      0.007w     88 calls
| JK: D                             :      0.000u      0.000s      0.001w     88 calls
| JK: USO2AO                        :      0.000u      0.000s      0.001w     88 calls
| JK: JK                            :      0.000u      0.000s      0.002w     88 calls
| | PK computes JK                  :      0.000u      0.000s      0.001w     88 calls
| JK: AO2USO                        :      0.000u      0.000s      0.000w     88 calls
HF: Form F                          :      0.000u      0.000s      0.001w     88 calls
HF: Form D                          :      0.000u      0.000s      0.001w     88 calls
HF: DIIS                            :      0.117u      0.017s      0.072w     80 calls
| DIISManager::add_entry            :      0.000u      0.000s      0.009w     80 calls
| DIISManager::extrapolate          :      0.033u      0.017s      0.018w     80 calls
| | bMatrix setup                   :      0.000u      0.000s      0.005w     80 calls
| | bMatrix pseudoinverse           :      0.017u      0.017s      0.009w     80 calls
| | New vector                      :      0.000u      0.000s      0.003w     80 calls
HF: Form C                          :      0.017u      0.000s      0.004w     80 calls

**************************************************************************************

Host: penguin

Timers On : Sun Jan 12 21:45:40 2020
Timers Off: Sun Jan 12 21:45:54 2020

Wall Time:       14.16 seconds

                                                       Time (seconds)
Module                                       User      System        Wall        Calls
Total PK formation time             :      0.050u      0.000s      0.033w      1 calls
HF: Form core H                     :      0.000u      0.000s      0.001w      1 calls
HF: Form S/X                        :      0.017u      0.000s      0.003w      1 calls
HF: Guess                           :      0.283u      0.000s      0.180w      1 calls
SAD Guess                           :      0.267u      0.000s      0.169w      1 calls
HF: Form G                          :      0.000u      0.000s      0.001w     12 calls
JK: D                               :      0.000u      0.000s      0.000w     12 calls
JK: USO2AO                          :      0.000u      0.000s      0.000w     12 calls
JK: JK                              :      0.000u      0.000s      0.000w     12 calls
PK computes JK                      :      0.000u      0.000s      0.000w     12 calls
JK: AO2USO                          :      0.000u      0.000s      0.000w     12 calls
HF: Form F                          :      0.000u      0.000s      0.000w     12 calls
HF: Form D                          :      0.000u      0.000s      0.000w     12 calls
HF: DIIS                            :      0.000u      0.000s      0.007w     11 calls
DIISManager::add_entry              :      0.000u      0.000s      0.001w     11 calls
DIISManager::extrapolate            :      0.000u      0.000s      0.001w     11 calls
bMatrix setup                       :      0.000u      0.000s      0.000w     11 calls
bMatrix pseudoinverse               :      0.000u      0.000s      0.000w     11 calls
New vector                          :      0.000u      0.000s      0.000w     11 calls
HF: Form C                          :      0.000u      0.000s      0.000w     11 calls

--------------------------------------------------------------------------------------
Total PK formation time             :      0.050u      0.000s      0.033w      1 calls
HF: Form core H                     :      0.000u      0.000s      0.001w      1 calls
HF: Form S/X                        :      0.017u      0.000s      0.003w      1 calls
HF: Guess                           :      0.283u      0.000s      0.180w      1 calls
| SAD Guess                         :      0.267u      0.000s      0.169w      1 calls
HF: Form G                          :      0.000u      0.000s      0.001w     12 calls
| JK: D                             :      0.000u      0.000s      0.000w     12 calls
| JK: USO2AO                        :      0.000u      0.000s      0.000w     12 calls
| JK: JK                            :      0.000u      0.000s      0.000w     12 calls
| | PK computes JK                  :      0.000u      0.000s      0.000w     12 calls
| JK: AO2USO                        :      0.000u      0.000s      0.000w     12 calls
HF: Form F                          :      0.000u      0.000s      0.000w     12 calls
HF: Form D                          :      0.000u      0.000s      0.000w     12 calls
HF: DIIS                            :      0.000u      0.000s      0.007w     11 calls
| DIISManager::add_entry            :      0.000u      0.000s      0.001w     11 calls
| DIISManager::extrapolate          :      0.000u      0.000s      0.001w     11 calls
| | bMatrix setup                   :      0.000u      0.000s      0.000w     11 calls
| | bMatrix pseudoinverse           :      0.000u      0.000s      0.000w     11 calls
| | New vector                      :      0.000u      0.000s      0.000w     11 calls
HF: Form C                          :      0.000u      0.000s      0.000w     11 calls

**************************************************************************************

Host: penguin

Timers On : Sun Jan 12 21:46:10 2020
Timers Off: Sun Jan 12 21:47:33 2020

Wall Time:       82.95 seconds

                                                       Time (seconds)
Module                                       User      System        Wall        Calls
Total PK formation time             :      0.433u      0.000s      0.261w      8 calls
HF: Form core H                     :      0.000u      0.017s      0.006w      8 calls
HF: Form S/X                        :      0.000u      0.000s      0.001w      8 calls
HF: Guess                           :      2.283u      0.000s      1.369w      8 calls
SAD Guess                           :      2.117u      0.000s      1.272w      8 calls
HF: Form G                          :      0.017u      0.000s      0.006w     88 calls
JK: D                               :      0.000u      0.000s      0.001w     88 calls
JK: USO2AO                          :      0.000u      0.000s      0.000w     88 calls
JK: JK                              :      0.000u      0.000s      0.002w     88 calls
PK computes JK                      :      0.000u      0.000s      0.001w     88 calls
JK: AO2USO                          :      0.000u      0.000s      0.000w     88 calls
HF: Form F                          :      0.000u      0.000s      0.001w     88 calls
HF: Form D                          :      0.000u      0.000s      0.001w     88 calls
HF: DIIS                            :      0.067u      0.017s      0.067w     80 calls
DIISManager::add_entry              :      0.000u      0.000s      0.008w     80 calls
DIISManager::extrapolate            :      0.000u      0.000s      0.017w     80 calls
bMatrix setup                       :      0.000u      0.000s      0.004w     80 calls
bMatrix pseudoinverse               :      0.000u      0.000s      0.010w     80 calls
New vector                          :      0.000u      0.000s      0.002w     80 calls
HF: Form C                          :      0.067u      0.000s      0.004w     80 calls

--------------------------------------------------------------------------------------
Total PK formation time             :      0.433u      0.000s      0.261w      8 calls
HF: Form core H                     :      0.000u      0.017s      0.006w      8 calls
HF: Form S/X                        :      0.000u      0.000s      0.001w      8 calls
HF: Guess                           :      2.283u      0.000s      1.369w      8 calls
| SAD Guess                         :      2.117u      0.000s      1.272w      8 calls
HF: Form G                          :      0.017u      0.000s      0.006w     88 calls
| JK: D                             :      0.000u      0.000s      0.001w     88 calls
| JK: USO2AO                        :      0.000u      0.000s      0.000w     88 calls
| JK: JK                            :      0.000u      0.000s      0.002w     88 calls
| | PK computes JK                  :      0.000u      0.000s      0.001w     88 calls
| JK: AO2USO                        :      0.000u      0.000s      0.000w     88 calls
HF: Form F                          :      0.000u      0.000s      0.001w     88 calls
HF: Form D                          :      0.000u      0.000s      0.001w     88 calls
HF: DIIS                            :      0.067u      0.017s      0.067w     80 calls
| DIISManager::add_entry            :      0.000u      0.000s      0.008w     80 calls
| DIISManager::extrapolate          :      0.000u      0.000s      0.017w     80 calls
| | bMatrix setup                   :      0.000u      0.000s      0.004w     80 calls
| | bMatrix pseudoinverse           :      0.000u      0.000s      0.010w     80 calls
| | New vector                      :      0.000u      0.000s      0.002w     80 calls
HF: Form C                          :      0.067u      0.000s      0.004w     80 calls

**************************************************************************************

Host: davis-ws

Timers On : Mon Jan 13 14:49:29 2020
Timers Off: Mon Jan 13 14:49:43 2020

Wall Time:       14.38 seconds

                                                       Time (seconds)
Module                                       User      System        Wall        Calls
Total PK formation time             :      0.133u      0.000s      0.080w      2 calls
HF: Form core H                     :      0.000u      0.000s      0.001w      2 calls
HF: Form S/X                        :      0.000u      0.000s      0.000w      2 calls
HF: Guess                           :      0.400u      0.000s      0.237w      2 calls
SAD Guess                           :      0.367u      0.000s      0.220w      2 calls
HF: Form G                          :      0.017u      0.000s      0.001w     22 calls
JK: D                               :      0.000u      0.000s      0.000w     22 calls
JK: USO2AO                          :      0.000u      0.000s      0.000w     22 calls
JK: JK                              :      0.000u      0.000s      0.000w     22 calls
PK computes JK                      :      0.000u      0.000s      0.000w     22 calls
JK: AO2USO                          :      0.017u      0.000s      0.000w     22 calls
HF: Form F                          :      0.000u      0.000s      0.000w     22 calls
HF: Form D                          :      0.000u      0.000s      0.000w     22 calls
HF: DIIS                            :      0.017u      0.000s      0.007w     20 calls
DIISManager::add_entry              :      0.000u      0.000s      0.001w     20 calls
DIISManager::extrapolate            :      0.000u      0.000s      0.001w     20 calls
bMatrix setup                       :      0.000u      0.000s      0.000w     20 calls
bMatrix pseudoinverse               :      0.000u      0.000s      0.000w     20 calls
New vector                          :      0.000u      0.000s      0.000w     20 calls
HF: Form C                          :      0.000u      0.000s      0.000w     20 calls

--------------------------------------------------------------------------------------
Total PK formation time             :      0.133u      0.000s      0.080w      2 calls
HF: Form core H                     :      0.000u      0.000s      0.001w      2 calls
HF: Form S/X                        :      0.000u      0.000s      0.000w      2 calls
HF: Guess                           :      0.400u      0.000s      0.237w      2 calls
| SAD Guess                         :      0.367u      0.000s      0.220w      2 calls
HF: Form G                          :      0.017u      0.000s      0.001w     22 calls
| JK: D                             :      0.000u      0.000s      0.000w     22 calls
| JK: USO2AO                        :      0.000u      0.000s      0.000w     22 calls
| JK: JK                            :      0.000u      0.000s      0.000w     22 calls
| | PK computes JK                  :      0.000u      0.000s      0.000w     22 calls
| JK: AO2USO                        :      0.017u      0.000s      0.000w     22 calls
HF: Form F                          :      0.000u      0.000s      0.000w     22 calls
HF: Form D                          :      0.000u      0.000s      0.000w     22 calls
HF: DIIS                            :      0.017u      0.000s      0.007w     20 calls
| DIISManager::add_entry            :      0.000u      0.000s      0.001w     20 calls
| DIISManager::extrapolate          :      0.000u      0.000s      0.001w     20 calls
| | bMatrix setup                   :      0.000u      0.000s      0.000w     20 calls
| | bMatrix pseudoinverse           :      0.000u      0.000s      0.000w     20 calls
| | New vector                      :      0.000u      0.000s      0.000w     20 calls
HF: Form C                          :      0.000u      0.000s      0.000w     20 calls

**************************************************************************************

Host: davis-ws

Timers On : Mon Jan 13 14:49:34 2020
Timers Off: Mon Jan 13 14:49:43 2020

Wall Time:        9.41 seconds

                                                       Time (seconds)
Module                                       User      System        Wall        Calls

--------------------------------------------------------------------------------------

**************************************************************************************

Host: davis-ws

Timers On : Mon Jan 13 14:49:34 2020
Timers Off: Mon Jan 13 14:49:43 2020

Wall Time:        9.67 seconds

                                                       Time (seconds)
Module                                       User      System        Wall        Calls

--------------------------------------------------------------------------------------

**************************************************************************************

Host: davis-ws

Timers On : Mon Jan 13 14:49:34 2020
Timers Off: Mon Jan 13 14:49:43 2020

Wall Time:        9.59 seconds

                                                       Time (seconds)
Module                                       User      System        Wall        Calls

--------------------------------------------------------------------------------------

**************************************************************************************

Host: davis-ws

Timers On : Mon Jan 13 14:49:34 2020
Timers Off: Mon Jan 13 14:49:43 2020

Wall Time:        9.55 seconds

                                                       Time (seconds)
Module                                       User      System        Wall        Calls

--------------------------------------------------------------------------------------

**************************************************************************************


Host: davis-ws

Host: davis-ws

Timers On : Mon Jan 13 14:49:34 2020
Timers On : Mon Jan 13 14:49:34 2020
Timers Off: Mon Jan 13 14:49:43 2020
Timers Off: Mon Jan 13 14:49:43 2020

Wall Time:        9.53 seconds


Wall Time:        9.61 seconds

                                                       Time (seconds)
                                                       Time (seconds)
Module                                       User      System        Wall        Calls
Module                                       User      System        Wall        Calls

--------------------------------------------------------------------------------------

--------------------------------------------------------------------------------------

**************************************************************************************

**************************************************************************************

Host: davis-ws

Timers On : Tue Jan 14 10:31:13 2020
Timers Off: Tue Jan 14 10:32:12 2020

Wall Time:       59.05 seconds

                                                       Time (seconds)
Module                                       User      System        Wall        Calls
Total PK formation time             :      0.350u      0.017s      0.211w      8 calls
HF: Form core H                     :      0.000u      0.000s      0.004w      8 calls
HF: Form S/X                        :      0.000u      0.000s      0.001w      8 calls
HF: Guess                           :      1.883u      0.000s      1.138w      8 calls
SAD Guess                           :      1.750u      0.000s      1.058w      8 calls
HF: Form G                          :      0.017u      0.000s      0.004w     88 calls
JK: D                               :      0.000u      0.000s      0.001w     88 calls
JK: USO2AO                          :      0.000u      0.000s      0.000w     88 calls
JK: JK                              :      0.000u      0.000s      0.001w     88 calls
PK computes JK                      :      0.000u      0.000s      0.001w     88 calls
JK: AO2USO                          :      0.000u      0.000s      0.000w     88 calls
HF: Form F                          :      0.000u      0.000s      0.001w     88 calls
HF: Form D                          :      0.017u      0.000s      0.000w     88 calls
HF: DIIS                            :      0.083u      0.000s      0.042w     80 calls
DIISManager::add_entry              :      0.000u      0.000s      0.004w     80 calls
DIISManager::extrapolate            :      0.067u      0.000s      0.008w     80 calls
bMatrix setup                       :      0.017u      0.000s      0.002w     80 calls
bMatrix pseudoinverse               :      0.017u      0.000s      0.004w     80 calls
New vector                          :      0.017u      0.000s      0.001w     80 calls
HF: Form C                          :      0.000u      0.000s      0.003w     80 calls

--------------------------------------------------------------------------------------
Total PK formation time             :      0.350u      0.017s      0.211w      8 calls
HF: Form core H                     :      0.000u      0.000s      0.004w      8 calls
HF: Form S/X                        :      0.000u      0.000s      0.001w      8 calls
HF: Guess                           :      1.883u      0.000s      1.138w      8 calls
| SAD Guess                         :      1.750u      0.000s      1.058w      8 calls
HF: Form G                          :      0.017u      0.000s      0.004w     88 calls
| JK: D                             :      0.000u      0.000s      0.001w     88 calls
| JK: USO2AO                        :      0.000u      0.000s      0.000w     88 calls
| JK: JK                            :      0.000u      0.000s      0.001w     88 calls
| | PK computes JK                  :      0.000u      0.000s      0.001w     88 calls
| JK: AO2USO                        :      0.000u      0.000s      0.000w     88 calls
HF: Form F                          :      0.000u      0.000s      0.001w     88 calls
HF: Form D                          :      0.017u      0.000s      0.000w     88 calls
HF: DIIS                            :      0.083u      0.000s      0.042w     80 calls
| DIISManager::add_entry            :      0.000u      0.000s      0.004w     80 calls
| DIISManager::extrapolate          :      0.067u      0.000s      0.008w     80 calls
| | bMatrix setup                   :      0.017u      0.000s      0.002w     80 calls
| | bMatrix pseudoinverse           :      0.017u      0.000s      0.004w     80 calls
| | New vector                      :      0.017u      0.000s      0.001w     80 calls
HF: Form C                          :      0.000u      0.000s      0.003w     80 calls

**************************************************************************************
