
Host: penguin

Timers On : Thu Feb  6 07:37:55 2020
Timers Off: Thu Feb  6 08:01:00 2020

Wall Time:     1384.36 seconds

                                                       Time (seconds)
Module                                       User      System        Wall        Calls
Total PK formation time             :     13.367u      9.033s      3.412w     26 calls
HF: Form core H                     :      0.717u      0.667s      0.204w     30 calls
HF: Form S/X                        :      0.733u      0.600s      0.186w     30 calls
HF: Guess                           :    151.667u    131.733s     43.250w     30 calls
SAD Guess                           :    146.550u    127.583s     41.844w     30 calls
HF: Form G                          :     28.383u     29.200s      8.663w    317 calls
JK: D                               :      0.033u      0.017s      0.010w    317 calls
JK: USO2AO                          :      0.017u      0.000s      0.004w    317 calls
JK: JK                              :      6.667u      8.667s      2.321w    317 calls
PK computes JK                      :      0.033u      0.033s      0.015w    275 calls
DFH: compute_JK()                   :      6.633u      8.633s      2.304w     42 calls
DFH: Grabbing AOs                   :      0.000u      0.000s      0.000w     42 calls
DFH: compute_J                      :      4.650u      6.083s      1.605w     42 calls
DFH: compute_K                      :      0.983u      1.300s      0.347w     42 calls
JK: AO2USO                          :      0.000u      0.000s      0.001w    317 calls
HF: Form F                          :     21.083u     21.133s      6.243w    317 calls
HF: Form D                          :      7.017u      6.917s      2.047w    317 calls
HF: DIIS                            :     17.433u     17.000s      5.226w    287 calls
DIISManager::add_entry              :      0.133u      0.150s      0.060w    287 calls
DIISManager::extrapolate            :      0.233u      0.133s      0.079w    287 calls
bMatrix setup                       :      0.067u      0.017s      0.023w    287 calls
bMatrix pseudoinverse               :      0.100u      0.050s      0.038w    287 calls
New vector                          :      0.050u      0.033s      0.012w    287 calls
HF: Form C                          :      0.100u      0.033s      0.027w    287 calls
DFH: sparsity prep                  :      0.117u      0.000s      0.069w      4 calls
DFH: initialize()                   :      3.200u      2.533s      0.871w      4 calls
DFH: AO Construction                :      0.100u      0.133s      0.034w      4 calls
DFH: AO-Met. Contraction            :      0.117u      0.133s      0.034w      4 calls

--------------------------------------------------------------------------------------
Total PK formation time             :     13.367u      9.033s      3.412w     26 calls
HF: Form core H                     :      0.717u      0.667s      0.204w     30 calls
HF: Form S/X                        :      0.733u      0.600s      0.186w     30 calls
HF: Guess                           :    151.667u    131.733s     43.250w     30 calls
| SAD Guess                         :    146.550u    127.583s     41.844w     30 calls
HF: Form G                          :     28.383u     29.200s      8.663w    317 calls
| JK: D                             :      0.033u      0.017s      0.010w    317 calls
| JK: USO2AO                        :      0.017u      0.000s      0.004w    317 calls
| JK: JK                            :      6.667u      8.667s      2.321w    317 calls
| | PK computes JK                  :      0.033u      0.033s      0.015w    275 calls
| | DFH: compute_JK()               :      6.633u      8.633s      2.304w     42 calls
| | | DFH: Grabbing AOs             :      0.000u      0.000s      0.000w     42 calls
| | | DFH: compute_J                :      4.650u      6.083s      1.605w     42 calls
| | | DFH: compute_K                :      0.983u      1.300s      0.347w     42 calls
| JK: AO2USO                        :      0.000u      0.000s      0.001w    317 calls
HF: Form F                          :     21.083u     21.133s      6.243w    317 calls
HF: Form D                          :      7.017u      6.917s      2.047w    317 calls
HF: DIIS                            :     17.433u     17.000s      5.226w    287 calls
| DIISManager::add_entry            :      0.133u      0.150s      0.060w    287 calls
| DIISManager::extrapolate          :      0.233u      0.133s      0.079w    287 calls
| | bMatrix setup                   :      0.067u      0.017s      0.023w    287 calls
| | bMatrix pseudoinverse           :      0.100u      0.050s      0.038w    287 calls
| | New vector                      :      0.050u      0.033s      0.012w    287 calls
HF: Form C                          :      0.100u      0.033s      0.027w    287 calls
DFH: sparsity prep                  :      0.117u      0.000s      0.069w      4 calls
DFH: initialize()                   :      3.200u      2.533s      0.871w      4 calls
| DFH: AO Construction              :      0.100u      0.133s      0.034w      4 calls
| DFH: AO-Met. Contraction          :      0.117u      0.133s      0.034w      4 calls

**************************************************************************************

Host: penguin

Timers On : Thu Feb  6 08:04:19 2020
Timers Off: Thu Feb  6 08:34:34 2020

Wall Time:     1815.29 seconds

                                                       Time (seconds)
Module                                       User      System        Wall        Calls
Total PK formation time             :      8.950u      6.383s      2.327w     22 calls
HF: Form core H                     :      0.967u      1.000s      0.284w     33 calls
HF: Form S/X                        :      0.783u      0.900s      0.272w     33 calls
HF: Guess                           :    166.500u    157.750s     49.489w     33 calls
SAD Guess                           :    160.900u    152.683s     47.896w     33 calls
HF: Form G                          :     46.117u     52.033s     14.751w    354 calls
JK: D                               :      0.033u      0.017s      0.009w    354 calls
JK: USO2AO                          :      0.017u      0.017s      0.005w    354 calls
JK: JK                              :     21.883u     25.050s      7.062w    354 calls
PK computes JK                      :      0.067u      0.017s      0.011w    232 calls
DFH: compute_JK()                   :     21.783u     25.033s      7.047w    122 calls
DFH: Grabbing AOs                   :      0.000u      0.000s      0.000w    122 calls
DFH: compute_J                      :     16.283u     18.817s      5.290w    122 calls
DFH: compute_K                      :      2.667u      3.333s      0.928w    122 calls
JK: AO2USO                          :      0.000u      0.000s      0.001w    354 calls
HF: Form F                          :     23.550u     25.667s      7.272w    354 calls
HF: Form D                          :      7.333u      8.017s      2.254w    354 calls
HF: DIIS                            :     16.450u     17.783s      5.194w    321 calls
DIISManager::add_entry              :      0.150u      0.150s      0.059w    321 calls
DIISManager::extrapolate            :      0.300u      0.217s      0.106w    321 calls
bMatrix setup                       :      0.117u      0.133s      0.050w    321 calls
bMatrix pseudoinverse               :      0.117u      0.050s      0.036w    321 calls
New vector                          :      0.000u      0.017s      0.012w    321 calls
HF: Form C                          :      0.050u      0.017s      0.020w    321 calls
DFH: sparsity prep                  :      0.283u      0.000s      0.193w     11 calls
DFH: initialize()                   :     10.767u      8.883s      2.995w     11 calls
DFH: AO Construction                :      0.717u      0.800s      0.222w     11 calls
DFH: AO-Met. Contraction            :      0.700u      0.750s      0.218w     11 calls

--------------------------------------------------------------------------------------
Total PK formation time             :      8.950u      6.383s      2.327w     22 calls
HF: Form core H                     :      0.967u      1.000s      0.284w     33 calls
HF: Form S/X                        :      0.783u      0.900s      0.272w     33 calls
HF: Guess                           :    166.500u    157.750s     49.489w     33 calls
| SAD Guess                         :    160.900u    152.683s     47.896w     33 calls
HF: Form G                          :     46.117u     52.033s     14.751w    354 calls
| JK: D                             :      0.033u      0.017s      0.009w    354 calls
| JK: USO2AO                        :      0.017u      0.017s      0.005w    354 calls
| JK: JK                            :     21.883u     25.050s      7.062w    354 calls
| | PK computes JK                  :      0.067u      0.017s      0.011w    232 calls
| | DFH: compute_JK()               :     21.783u     25.033s      7.047w    122 calls
| | | DFH: Grabbing AOs             :      0.000u      0.000s      0.000w    122 calls
| | | DFH: compute_J                :     16.283u     18.817s      5.290w    122 calls
| | | DFH: compute_K                :      2.667u      3.333s      0.928w    122 calls
| JK: AO2USO                        :      0.000u      0.000s      0.001w    354 calls
HF: Form F                          :     23.550u     25.667s      7.272w    354 calls
HF: Form D                          :      7.333u      8.017s      2.254w    354 calls
HF: DIIS                            :     16.450u     17.783s      5.194w    321 calls
| DIISManager::add_entry            :      0.150u      0.150s      0.059w    321 calls
| DIISManager::extrapolate          :      0.300u      0.217s      0.106w    321 calls
| | bMatrix setup                   :      0.117u      0.133s      0.050w    321 calls
| | bMatrix pseudoinverse           :      0.117u      0.050s      0.036w    321 calls
| | New vector                      :      0.000u      0.017s      0.012w    321 calls
HF: Form C                          :      0.050u      0.017s      0.020w    321 calls
DFH: sparsity prep                  :      0.283u      0.000s      0.193w     11 calls
DFH: initialize()                   :     10.767u      8.883s      2.995w     11 calls
| DFH: AO Construction              :      0.717u      0.800s      0.222w     11 calls
| DFH: AO-Met. Contraction          :      0.700u      0.750s      0.218w     11 calls

**************************************************************************************

Host: davis-ws

Timers On : Fri Feb  7 18:11:18 2020
Timers Off: Fri Feb  7 18:11:48 2020

Wall Time:       29.85 seconds

                                                       Time (seconds)
Module                                       User      System        Wall        Calls
Total PK formation time             :      0.050u      0.000s      0.028w      1 calls
HF: Form core H                     :      0.000u      0.000s      0.001w      1 calls
HF: Form S/X                        :      0.000u      0.000s      0.000w      1 calls
HF: Guess                           :      0.233u      0.017s      0.149w      1 calls
SAD Guess                           :      0.217u      0.017s      0.139w      1 calls
HF: Form G                          :      0.000u      0.000s      0.000w     12 calls
JK: D                               :      0.000u      0.000s      0.000w     12 calls
JK: USO2AO                          :      0.000u      0.000s      0.000w     12 calls
JK: JK                              :      0.000u      0.000s      0.000w     12 calls
PK computes JK                      :      0.000u      0.000s      0.000w     12 calls
JK: AO2USO                          :      0.000u      0.000s      0.000w     12 calls
HF: Form F                          :      0.000u      0.000s      0.000w     12 calls
HF: Form D                          :      0.000u      0.000s      0.000w     12 calls
HF: DIIS                            :      0.017u      0.000s      0.004w     11 calls
DIISManager::add_entry              :      0.000u      0.000s      0.000w     11 calls
DIISManager::extrapolate            :      0.000u      0.000s      0.001w     11 calls
bMatrix setup                       :      0.000u      0.000s      0.000w     11 calls
bMatrix pseudoinverse               :      0.000u      0.000s      0.000w     11 calls
New vector                          :      0.000u      0.000s      0.000w     11 calls
HF: Form C                          :      0.000u      0.000s      0.000w     11 calls

--------------------------------------------------------------------------------------
Total PK formation time             :      0.050u      0.000s      0.028w      1 calls
HF: Form core H                     :      0.000u      0.000s      0.001w      1 calls
HF: Form S/X                        :      0.000u      0.000s      0.000w      1 calls
HF: Guess                           :      0.233u      0.017s      0.149w      1 calls
| SAD Guess                         :      0.217u      0.017s      0.139w      1 calls
HF: Form G                          :      0.000u      0.000s      0.000w     12 calls
| JK: D                             :      0.000u      0.000s      0.000w     12 calls
| JK: USO2AO                        :      0.000u      0.000s      0.000w     12 calls
| JK: JK                            :      0.000u      0.000s      0.000w     12 calls
| | PK computes JK                  :      0.000u      0.000s      0.000w     12 calls
| JK: AO2USO                        :      0.000u      0.000s      0.000w     12 calls
HF: Form F                          :      0.000u      0.000s      0.000w     12 calls
HF: Form D                          :      0.000u      0.000s      0.000w     12 calls
HF: DIIS                            :      0.017u      0.000s      0.004w     11 calls
| DIISManager::add_entry            :      0.000u      0.000s      0.000w     11 calls
| DIISManager::extrapolate          :      0.000u      0.000s      0.001w     11 calls
| | bMatrix setup                   :      0.000u      0.000s      0.000w     11 calls
| | bMatrix pseudoinverse           :      0.000u      0.000s      0.000w     11 calls
| | New vector                      :      0.000u      0.000s      0.000w     11 calls
HF: Form C                          :      0.000u      0.000s      0.000w     11 calls

**************************************************************************************

Host: davis-ws

Timers On : Fri Feb  7 18:18:05 2020
Timers Off: Fri Feb  7 18:50:20 2020

Wall Time:     1935.36 seconds

                                                       Time (seconds)
Module                                       User      System        Wall        Calls
Total PK formation time             :      0.050u      0.000s      0.024w      1 calls
HF: Form core H                     :      0.000u      0.000s      0.001w      1 calls
HF: Form S/X                        :      0.000u      0.000s      0.000w      1 calls
HF: Guess                           :      0.217u      0.000s      0.134w      1 calls
SAD Guess                           :      0.217u      0.000s      0.125w      1 calls
HF: Form G                          :      0.000u      0.000s      0.000w     12 calls
JK: D                               :      0.000u      0.000s      0.000w     12 calls
JK: USO2AO                          :      0.000u      0.000s      0.000w     12 calls
JK: JK                              :      0.000u      0.000s      0.000w     12 calls
PK computes JK                      :      0.000u      0.000s      0.000w     12 calls
JK: AO2USO                          :      0.000u      0.000s      0.000w     12 calls
HF: Form F                          :      0.000u      0.000s      0.000w     12 calls
HF: Form D                          :      0.000u      0.000s      0.000w     12 calls
HF: DIIS                            :      0.017u      0.000s      0.004w     11 calls
DIISManager::add_entry              :      0.000u      0.000s      0.000w     11 calls
DIISManager::extrapolate            :      0.000u      0.000s      0.001w     11 calls
bMatrix setup                       :      0.000u      0.000s      0.000w     11 calls
bMatrix pseudoinverse               :      0.000u      0.000s      0.000w     11 calls
New vector                          :      0.000u      0.000s      0.000w     11 calls
HF: Form C                          :      0.000u      0.000s      0.000w     11 calls

--------------------------------------------------------------------------------------
Total PK formation time             :      0.050u      0.000s      0.024w      1 calls
HF: Form core H                     :      0.000u      0.000s      0.001w      1 calls
HF: Form S/X                        :      0.000u      0.000s      0.000w      1 calls
HF: Guess                           :      0.217u      0.000s      0.134w      1 calls
| SAD Guess                         :      0.217u      0.000s      0.125w      1 calls
HF: Form G                          :      0.000u      0.000s      0.000w     12 calls
| JK: D                             :      0.000u      0.000s      0.000w     12 calls
| JK: USO2AO                        :      0.000u      0.000s      0.000w     12 calls
| JK: JK                            :      0.000u      0.000s      0.000w     12 calls
| | PK computes JK                  :      0.000u      0.000s      0.000w     12 calls
| JK: AO2USO                        :      0.000u      0.000s      0.000w     12 calls
HF: Form F                          :      0.000u      0.000s      0.000w     12 calls
HF: Form D                          :      0.000u      0.000s      0.000w     12 calls
HF: DIIS                            :      0.017u      0.000s      0.004w     11 calls
| DIISManager::add_entry            :      0.000u      0.000s      0.000w     11 calls
| DIISManager::extrapolate          :      0.000u      0.000s      0.001w     11 calls
| | bMatrix setup                   :      0.000u      0.000s      0.000w     11 calls
| | bMatrix pseudoinverse           :      0.000u      0.000s      0.000w     11 calls
| | New vector                      :      0.000u      0.000s      0.000w     11 calls
HF: Form C                          :      0.000u      0.000s      0.000w     11 calls

**************************************************************************************

Host: davis-ws

Timers On : Tue Feb 11 17:23:13 2020
Timers Off: Tue Feb 11 18:02:32 2020

Wall Time:     2359.62 seconds

                                                       Time (seconds)
Module                                       User      System        Wall        Calls
Total PK formation time             :     41.267u      0.850s      4.497w     88 calls
HF: Form core H                     :      1.000u      0.117s      0.140w    118 calls
HF: Form S/X                        :      0.150u      0.033s      0.018w    118 calls
HF: Guess                           :    252.867u      5.867s     27.288w    118 calls
SAD Guess                           :    239.717u      5.383s     25.837w    118 calls
HF: Form G                          :      1.367u      0.067s      0.170w   1363 calls
JK: D                               :      0.117u      0.000s      0.014w   1363 calls
JK: USO2AO                          :      0.150u      0.000s      0.011w   1363 calls
JK: JK                              :      0.733u      0.050s      0.076w   1363 calls
PK computes JK                      :      0.300u      0.017s      0.016w   1032 calls
DFH: compute_JK()                   :      0.350u      0.017s      0.055w    331 calls
DFH: Grabbing AOs                   :      0.000u      0.000s      0.001w    331 calls
DFH: compute_J                      :      0.217u      0.000s      0.024w    331 calls
DFH: compute_K                      :      0.017u      0.000s      0.010w    331 calls
JK: AO2USO                          :      0.000u      0.000s      0.003w   1363 calls
HF: Form F                          :      0.617u      0.000s      0.081w   1363 calls
HF: Form D                          :      0.767u      0.017s      0.101w   1363 calls
HF: DIIS                            :      9.583u      0.367s      0.994w   1245 calls
DIISManager::add_entry              :      0.900u      0.067s      0.114w   1245 calls
DIISManager::extrapolate            :      1.500u      0.050s      0.154w   1245 calls
bMatrix setup                       :      0.450u      0.017s      0.051w   1245 calls
bMatrix pseudoinverse               :      0.650u      0.033s      0.061w   1245 calls
New vector                          :      0.200u      0.000s      0.030w   1245 calls
HF: Form C                          :      0.533u      0.017s      0.063w   1245 calls
DFH: sparsity prep                  :      0.667u      0.000s      0.414w     30 calls
DFH: initialize()                   :     22.033u      0.600s      2.440w     30 calls
DFH: AO Construction                :      0.150u      0.000s      0.014w     30 calls
DFH: AO-Met. Contraction            :      0.000u      0.000s      0.002w     30 calls

--------------------------------------------------------------------------------------
Total PK formation time             :     41.267u      0.850s      4.497w     88 calls
HF: Form core H                     :      1.000u      0.117s      0.140w    118 calls
HF: Form S/X                        :      0.150u      0.033s      0.018w    118 calls
HF: Guess                           :    252.867u      5.867s     27.288w    118 calls
| SAD Guess                         :    239.717u      5.383s     25.837w    118 calls
HF: Form G                          :      1.367u      0.067s      0.170w   1363 calls
| JK: D                             :      0.117u      0.000s      0.014w   1363 calls
| JK: USO2AO                        :      0.150u      0.000s      0.011w   1363 calls
| JK: JK                            :      0.733u      0.050s      0.076w   1363 calls
| | PK computes JK                  :      0.300u      0.017s      0.016w   1032 calls
| | DFH: compute_JK()               :      0.350u      0.017s      0.055w    331 calls
| | | DFH: Grabbing AOs             :      0.000u      0.000s      0.001w    331 calls
| | | DFH: compute_J                :      0.217u      0.000s      0.024w    331 calls
| | | DFH: compute_K                :      0.017u      0.000s      0.010w    331 calls
| JK: AO2USO                        :      0.000u      0.000s      0.003w   1363 calls
HF: Form F                          :      0.617u      0.000s      0.081w   1363 calls
HF: Form D                          :      0.767u      0.017s      0.101w   1363 calls
HF: DIIS                            :      9.583u      0.367s      0.994w   1245 calls
| DIISManager::add_entry            :      0.900u      0.067s      0.114w   1245 calls
| DIISManager::extrapolate          :      1.500u      0.050s      0.154w   1245 calls
| | bMatrix setup                   :      0.450u      0.017s      0.051w   1245 calls
| | bMatrix pseudoinverse           :      0.650u      0.033s      0.061w   1245 calls
| | New vector                      :      0.200u      0.000s      0.030w   1245 calls
HF: Form C                          :      0.533u      0.017s      0.063w   1245 calls
DFH: sparsity prep                  :      0.667u      0.000s      0.414w     30 calls
DFH: initialize()                   :     22.033u      0.600s      2.440w     30 calls
| DFH: AO Construction              :      0.150u      0.000s      0.014w     30 calls
| DFH: AO-Met. Contraction          :      0.000u      0.000s      0.002w     30 calls

**************************************************************************************

Host: davis-ws

Timers On : Tue Feb 11 18:03:00 2020
Timers Off: Tue Feb 11 20:14:08 2020

Wall Time:     7868.49 seconds

                                                       Time (seconds)
Module                                       User      System        Wall        Calls
Total PK formation time             :     50.883u      1.283s      5.790w    117 calls
HF: Form core H                     :      1.217u      0.083s      0.174w    159 calls
HF: Form S/X                        :      0.233u      0.033s      0.026w    159 calls
HF: Guess                           :    325.317u      7.450s     35.717w    159 calls
SAD Guess                           :    308.233u      7.083s     33.831w    159 calls
HF: Form G                          :      2.333u      0.067s      0.264w   1694 calls
JK: D                               :      0.117u      0.000s      0.015w   1694 calls
JK: USO2AO                          :      0.283u      0.033s      0.009w   1694 calls
JK: JK                              :      0.950u      0.017s      0.114w   1694 calls
PK computes JK                      :      0.183u      0.000s      0.018w   1309 calls
DFH: compute_JK()                   :      0.650u      0.017s      0.090w    385 calls
DFH: Grabbing AOs                   :      0.000u      0.000s      0.001w    385 calls
DFH: compute_J                      :      0.267u      0.017s      0.034w    385 calls
DFH: compute_K                      :      0.050u      0.000s      0.012w    385 calls
JK: AO2USO                          :      0.033u      0.000s      0.003w   1694 calls
HF: Form F                          :      1.917u      0.067s      0.239w   1694 calls
HF: Form D                          :      2.033u      0.083s      0.236w   1694 calls
HF: DIIS                            :     12.017u      0.317s      1.270w   1535 calls
DIISManager::add_entry              :      1.167u      0.033s      0.121w   1535 calls
DIISManager::extrapolate            :      1.500u      0.033s      0.156w   1535 calls
bMatrix setup                       :      0.400u      0.033s      0.052w   1535 calls
bMatrix pseudoinverse               :      0.633u      0.000s      0.057w   1535 calls
New vector                          :      0.333u      0.000s      0.033w   1535 calls
HF: Form C                          :      0.583u      0.000s      0.072w   1535 calls
DFH: sparsity prep                  :      0.983u      0.000s      0.564w     42 calls
DFH: initialize()                   :     30.000u      0.617s      3.307w     42 calls
DFH: AO Construction                :      0.117u      0.000s      0.016w     42 calls
DFH: AO-Met. Contraction            :      0.133u      0.000s      0.018w     42 calls

--------------------------------------------------------------------------------------
Total PK formation time             :     50.883u      1.283s      5.790w    117 calls
HF: Form core H                     :      1.217u      0.083s      0.174w    159 calls
HF: Form S/X                        :      0.233u      0.033s      0.026w    159 calls
HF: Guess                           :    325.317u      7.450s     35.717w    159 calls
| SAD Guess                         :    308.233u      7.083s     33.831w    159 calls
HF: Form G                          :      2.333u      0.067s      0.264w   1694 calls
| JK: D                             :      0.117u      0.000s      0.015w   1694 calls
| JK: USO2AO                        :      0.283u      0.033s      0.009w   1694 calls
| JK: JK                            :      0.950u      0.017s      0.114w   1694 calls
| | PK computes JK                  :      0.183u      0.000s      0.018w   1309 calls
| | DFH: compute_JK()               :      0.650u      0.017s      0.090w    385 calls
| | | DFH: Grabbing AOs             :      0.000u      0.000s      0.001w    385 calls
| | | DFH: compute_J                :      0.267u      0.017s      0.034w    385 calls
| | | DFH: compute_K                :      0.050u      0.000s      0.012w    385 calls
| JK: AO2USO                        :      0.033u      0.000s      0.003w   1694 calls
HF: Form F                          :      1.917u      0.067s      0.239w   1694 calls
HF: Form D                          :      2.033u      0.083s      0.236w   1694 calls
HF: DIIS                            :     12.017u      0.317s      1.270w   1535 calls
| DIISManager::add_entry            :      1.167u      0.033s      0.121w   1535 calls
| DIISManager::extrapolate          :      1.500u      0.033s      0.156w   1535 calls
| | bMatrix setup                   :      0.400u      0.033s      0.052w   1535 calls
| | bMatrix pseudoinverse           :      0.633u      0.000s      0.057w   1535 calls
| | New vector                      :      0.333u      0.000s      0.033w   1535 calls
HF: Form C                          :      0.583u      0.000s      0.072w   1535 calls
DFH: sparsity prep                  :      0.983u      0.000s      0.564w     42 calls
DFH: initialize()                   :     30.000u      0.617s      3.307w     42 calls
| DFH: AO Construction              :      0.117u      0.000s      0.016w     42 calls
| DFH: AO-Met. Contraction          :      0.133u      0.000s      0.018w     42 calls

**************************************************************************************

Host: davis-ws

Timers On : Tue Feb 11 20:14:43 2020
Timers Off: Tue Feb 11 20:55:14 2020

Wall Time:     2431.31 seconds

                                                       Time (seconds)
Module                                       User      System        Wall        Calls
Total PK formation time             :      1.750u      0.017s      0.187w      4 calls
HF: Form core H                     :      0.033u      0.000s      0.003w      5 calls
HF: Form S/X                        :      0.000u      0.000s      0.001w      5 calls
HF: Guess                           :     10.400u      0.233s      1.122w      5 calls
SAD Guess                           :      9.850u      0.200s      1.063w      5 calls
HF: Form G                          :      0.017u      0.000s      0.003w     61 calls
JK: D                               :      0.000u      0.000s      0.000w     61 calls
JK: USO2AO                          :      0.000u      0.000s      0.000w     61 calls
JK: JK                              :      0.000u      0.000s      0.001w     61 calls
PK computes JK                      :      0.000u      0.000s      0.001w     49 calls
DFH: compute_JK()                   :      0.000u      0.000s      0.001w     12 calls
DFH: Grabbing AOs                   :      0.000u      0.000s      0.000w     12 calls
DFH: compute_J                      :      0.000u      0.000s      0.000w     12 calls
DFH: compute_K                      :      0.000u      0.000s      0.000w     12 calls
JK: AO2USO                          :      0.017u      0.000s      0.000w     61 calls
HF: Form F                          :      0.000u      0.000s      0.001w     61 calls
HF: Form D                          :      0.017u      0.000s      0.000w     61 calls
HF: DIIS                            :      0.333u      0.000s      0.033w     56 calls
DIISManager::add_entry              :      0.050u      0.000s      0.003w     56 calls
DIISManager::extrapolate            :      0.083u      0.000s      0.006w     56 calls
bMatrix setup                       :      0.050u      0.000s      0.002w     56 calls
bMatrix pseudoinverse               :      0.000u      0.000s      0.003w     56 calls
New vector                          :      0.033u      0.000s      0.001w     56 calls
HF: Form C                          :      0.000u      0.000s      0.002w     56 calls
DFH: sparsity prep                  :      0.033u      0.000s      0.013w      1 calls
DFH: initialize()                   :      0.750u      0.017s      0.077w      1 calls
DFH: AO Construction                :      0.000u      0.000s      0.000w      1 calls
DFH: AO-Met. Contraction            :      0.000u      0.000s      0.000w      1 calls

--------------------------------------------------------------------------------------
Total PK formation time             :      1.750u      0.017s      0.187w      4 calls
HF: Form core H                     :      0.033u      0.000s      0.003w      5 calls
HF: Form S/X                        :      0.000u      0.000s      0.001w      5 calls
HF: Guess                           :     10.400u      0.233s      1.122w      5 calls
| SAD Guess                         :      9.850u      0.200s      1.063w      5 calls
HF: Form G                          :      0.017u      0.000s      0.003w     61 calls
| JK: D                             :      0.000u      0.000s      0.000w     61 calls
| JK: USO2AO                        :      0.000u      0.000s      0.000w     61 calls
| JK: JK                            :      0.000u      0.000s      0.001w     61 calls
| | PK computes JK                  :      0.000u      0.000s      0.001w     49 calls
| | DFH: compute_JK()               :      0.000u      0.000s      0.001w     12 calls
| | | DFH: Grabbing AOs             :      0.000u      0.000s      0.000w     12 calls
| | | DFH: compute_J                :      0.000u      0.000s      0.000w     12 calls
| | | DFH: compute_K                :      0.000u      0.000s      0.000w     12 calls
| JK: AO2USO                        :      0.017u      0.000s      0.000w     61 calls
HF: Form F                          :      0.000u      0.000s      0.001w     61 calls
HF: Form D                          :      0.017u      0.000s      0.000w     61 calls
HF: DIIS                            :      0.333u      0.000s      0.033w     56 calls
| DIISManager::add_entry            :      0.050u      0.000s      0.003w     56 calls
| DIISManager::extrapolate          :      0.083u      0.000s      0.006w     56 calls
| | bMatrix setup                   :      0.050u      0.000s      0.002w     56 calls
| | bMatrix pseudoinverse           :      0.000u      0.000s      0.003w     56 calls
| | New vector                      :      0.033u      0.000s      0.001w     56 calls
HF: Form C                          :      0.000u      0.000s      0.002w     56 calls
DFH: sparsity prep                  :      0.033u      0.000s      0.013w      1 calls
DFH: initialize()                   :      0.750u      0.017s      0.077w      1 calls
| DFH: AO Construction              :      0.000u      0.000s      0.000w      1 calls
| DFH: AO-Met. Contraction          :      0.000u      0.000s      0.000w      1 calls

**************************************************************************************

Host: ws-b14-mmd

Timers On : Wed Feb 26 06:13:57 2020
Timers Off: Wed Feb 26 06:14:50 2020

Wall Time:       52.14 seconds

                                                       Time (seconds)
Module                                       User      System        Wall        Calls
Total PK formation time             :      0.083u      0.000s      0.059w      2 calls
HF: Form core H                     :      0.017u      0.000s      0.002w      3 calls
HF: Form S/X                        :      0.000u      0.000s      0.000w      3 calls
HF: Guess                           :      0.783u      0.000s      0.478w      3 calls
SAD Guess                           :      0.733u      0.000s      0.446w      3 calls
HF: Form G                          :      0.000u      0.000s      0.001w     27 calls
JK: D                               :      0.000u      0.000s      0.000w     27 calls
JK: USO2AO                          :      0.000u      0.000s      0.000w     27 calls
JK: JK                              :      0.000u      0.000s      0.001w     27 calls
PK computes JK                      :      0.000u      0.000s      0.000w     18 calls
DFH: compute_JK()                   :      0.000u      0.000s      0.001w      9 calls
DFH: Grabbing AOs                   :      0.000u      0.000s      0.000w      9 calls
DFH: compute_J                      :      0.000u      0.000s      0.000w      9 calls
DFH: compute_K                      :      0.000u      0.000s      0.000w      9 calls
JK: AO2USO                          :      0.000u      0.000s      0.000w     27 calls
HF: Form F                          :      0.000u      0.000s      0.000w     27 calls
HF: Form D                          :      0.000u      0.000s      0.000w     27 calls
HF: DIIS                            :      0.050u      0.000s      0.011w     24 calls
DIISManager::add_entry              :      0.000u      0.000s      0.001w     24 calls
DIISManager::extrapolate            :      0.017u      0.000s      0.001w     24 calls
bMatrix setup                       :      0.000u      0.000s      0.000w     24 calls
bMatrix pseudoinverse               :      0.017u      0.000s      0.001w     24 calls
New vector                          :      0.000u      0.000s      0.000w     24 calls
HF: Form C                          :      0.000u      0.000s      0.001w     24 calls
DFH: sparsity prep                  :      0.033u      0.000s      0.015w      1 calls
DFH: initialize()                   :      0.083u      0.000s      0.046w      1 calls
DFH: AO Construction                :      0.017u      0.000s      0.001w      1 calls
DFH: AO-Met. Contraction            :      0.000u      0.000s      0.000w      1 calls

--------------------------------------------------------------------------------------
Total PK formation time             :      0.083u      0.000s      0.059w      2 calls
HF: Form core H                     :      0.017u      0.000s      0.002w      3 calls
HF: Form S/X                        :      0.000u      0.000s      0.000w      3 calls
HF: Guess                           :      0.783u      0.000s      0.478w      3 calls
| SAD Guess                         :      0.733u      0.000s      0.446w      3 calls
HF: Form G                          :      0.000u      0.000s      0.001w     27 calls
| JK: D                             :      0.000u      0.000s      0.000w     27 calls
| JK: USO2AO                        :      0.000u      0.000s      0.000w     27 calls
| JK: JK                            :      0.000u      0.000s      0.001w     27 calls
| | PK computes JK                  :      0.000u      0.000s      0.000w     18 calls
| | DFH: compute_JK()               :      0.000u      0.000s      0.001w      9 calls
| | | DFH: Grabbing AOs             :      0.000u      0.000s      0.000w      9 calls
| | | DFH: compute_J                :      0.000u      0.000s      0.000w      9 calls
| | | DFH: compute_K                :      0.000u      0.000s      0.000w      9 calls
| JK: AO2USO                        :      0.000u      0.000s      0.000w     27 calls
HF: Form F                          :      0.000u      0.000s      0.000w     27 calls
HF: Form D                          :      0.000u      0.000s      0.000w     27 calls
HF: DIIS                            :      0.050u      0.000s      0.011w     24 calls
| DIISManager::add_entry            :      0.000u      0.000s      0.001w     24 calls
| DIISManager::extrapolate          :      0.017u      0.000s      0.001w     24 calls
| | bMatrix setup                   :      0.000u      0.000s      0.000w     24 calls
| | bMatrix pseudoinverse           :      0.017u      0.000s      0.001w     24 calls
| | New vector                      :      0.000u      0.000s      0.000w     24 calls
HF: Form C                          :      0.000u      0.000s      0.001w     24 calls
DFH: sparsity prep                  :      0.033u      0.000s      0.015w      1 calls
DFH: initialize()                   :      0.083u      0.000s      0.046w      1 calls
| DFH: AO Construction              :      0.017u      0.000s      0.001w      1 calls
| DFH: AO-Met. Contraction          :      0.000u      0.000s      0.000w      1 calls

**************************************************************************************

Host: ws-b14-mmd

Timers On : Wed Feb 26 06:49:08 2020
Timers Off: Wed Feb 26 06:49:42 2020

Wall Time:       33.85 seconds

                                                       Time (seconds)
Module                                       User      System        Wall        Calls

--------------------------------------------------------------------------------------

**************************************************************************************

Host: davis-ws

Timers On : Wed Feb 26 14:58:54 2020
Timers Off: Wed Feb 26 14:59:30 2020

Wall Time:       36.44 seconds

                                                       Time (seconds)
Module                                       User      System        Wall        Calls
Total PK formation time             :      0.067u      0.000s      0.042w      2 calls
HF: Form core H                     :      0.000u      0.000s      0.001w      3 calls
HF: Form S/X                        :      0.000u      0.000s      0.000w      3 calls
HF: Guess                           :      0.567u      0.000s      0.348w      3 calls
SAD Guess                           :      0.517u      0.000s      0.325w      3 calls
HF: Form G                          :      0.000u      0.000s      0.001w     27 calls
JK: D                               :      0.000u      0.000s      0.000w     27 calls
JK: USO2AO                          :      0.000u      0.000s      0.000w     27 calls
JK: JK                              :      0.000u      0.000s      0.000w     27 calls
PK computes JK                      :      0.000u      0.000s      0.000w     18 calls
DFH: compute_JK()                   :      0.000u      0.000s      0.000w      9 calls
DFH: Grabbing AOs                   :      0.000u      0.000s      0.000w      9 calls
DFH: compute_J                      :      0.000u      0.000s      0.000w      9 calls
DFH: compute_K                      :      0.000u      0.000s      0.000w      9 calls
JK: AO2USO                          :      0.000u      0.000s      0.000w     27 calls
HF: Form F                          :      0.000u      0.000s      0.000w     27 calls
HF: Form D                          :      0.000u      0.000s      0.000w     27 calls
HF: DIIS                            :      0.017u      0.000s      0.008w     24 calls
DIISManager::add_entry              :      0.000u      0.000s      0.001w     24 calls
DIISManager::extrapolate            :      0.000u      0.000s      0.001w     24 calls
bMatrix setup                       :      0.000u      0.000s      0.000w     24 calls
bMatrix pseudoinverse               :      0.000u      0.000s      0.000w     24 calls
New vector                          :      0.000u      0.000s      0.000w     24 calls
HF: Form C                          :      0.000u      0.000s      0.000w     24 calls
DFH: sparsity prep                  :      0.017u      0.000s      0.010w      1 calls
DFH: initialize()                   :      0.050u      0.000s      0.032w      1 calls
DFH: AO Construction                :      0.000u      0.000s      0.001w      1 calls
DFH: AO-Met. Contraction            :      0.000u      0.000s      0.000w      1 calls

--------------------------------------------------------------------------------------
Total PK formation time             :      0.067u      0.000s      0.042w      2 calls
HF: Form core H                     :      0.000u      0.000s      0.001w      3 calls
HF: Form S/X                        :      0.000u      0.000s      0.000w      3 calls
HF: Guess                           :      0.567u      0.000s      0.348w      3 calls
| SAD Guess                         :      0.517u      0.000s      0.325w      3 calls
HF: Form G                          :      0.000u      0.000s      0.001w     27 calls
| JK: D                             :      0.000u      0.000s      0.000w     27 calls
| JK: USO2AO                        :      0.000u      0.000s      0.000w     27 calls
| JK: JK                            :      0.000u      0.000s      0.000w     27 calls
| | PK computes JK                  :      0.000u      0.000s      0.000w     18 calls
| | DFH: compute_JK()               :      0.000u      0.000s      0.000w      9 calls
| | | DFH: Grabbing AOs             :      0.000u      0.000s      0.000w      9 calls
| | | DFH: compute_J                :      0.000u      0.000s      0.000w      9 calls
| | | DFH: compute_K                :      0.000u      0.000s      0.000w      9 calls
| JK: AO2USO                        :      0.000u      0.000s      0.000w     27 calls
HF: Form F                          :      0.000u      0.000s      0.000w     27 calls
HF: Form D                          :      0.000u      0.000s      0.000w     27 calls
HF: DIIS                            :      0.017u      0.000s      0.008w     24 calls
| DIISManager::add_entry            :      0.000u      0.000s      0.001w     24 calls
| DIISManager::extrapolate          :      0.000u      0.000s      0.001w     24 calls
| | bMatrix setup                   :      0.000u      0.000s      0.000w     24 calls
| | bMatrix pseudoinverse           :      0.000u      0.000s      0.000w     24 calls
| | New vector                      :      0.000u      0.000s      0.000w     24 calls
HF: Form C                          :      0.000u      0.000s      0.000w     24 calls
DFH: sparsity prep                  :      0.017u      0.000s      0.010w      1 calls
DFH: initialize()                   :      0.050u      0.000s      0.032w      1 calls
| DFH: AO Construction              :      0.000u      0.000s      0.001w      1 calls
| DFH: AO-Met. Contraction          :      0.000u      0.000s      0.000w      1 calls

**************************************************************************************

Host: davis-ws

Timers On : Wed Feb 26 15:02:11 2020
Timers Off: Wed Feb 26 15:02:52 2020

Wall Time:       40.63 seconds

                                                       Time (seconds)
Module                                       User      System        Wall        Calls
Total PK formation time             :      0.067u      0.000s      0.047w      2 calls
HF: Form core H                     :      0.000u      0.000s      0.001w      3 calls
HF: Form S/X                        :      0.000u      0.000s      0.000w      3 calls
HF: Guess                           :      0.650u      0.000s      0.378w      3 calls
SAD Guess                           :      0.600u      0.000s      0.352w      3 calls
HF: Form G                          :      0.000u      0.000s      0.001w     31 calls
JK: D                               :      0.000u      0.000s      0.000w     31 calls
JK: USO2AO                          :      0.000u      0.000s      0.000w     31 calls
JK: JK                              :      0.000u      0.000s      0.001w     31 calls
PK computes JK                      :      0.000u      0.000s      0.000w     22 calls
DFH: compute_JK()                   :      0.000u      0.000s      0.000w      9 calls
DFH: Grabbing AOs                   :      0.000u      0.000s      0.000w      9 calls
DFH: compute_J                      :      0.000u      0.000s      0.000w      9 calls
DFH: compute_K                      :      0.000u      0.000s      0.000w      9 calls
JK: AO2USO                          :      0.000u      0.000s      0.000w     31 calls
HF: Form F                          :      0.000u      0.000s      0.000w     31 calls
HF: Form D                          :      0.000u      0.000s      0.000w     31 calls
HF: DIIS                            :      0.017u      0.000s      0.011w     28 calls
DIISManager::add_entry              :      0.000u      0.000s      0.001w     28 calls
DIISManager::extrapolate            :      0.000u      0.000s      0.002w     28 calls
bMatrix setup                       :      0.000u      0.000s      0.001w     28 calls
bMatrix pseudoinverse               :      0.000u      0.000s      0.001w     28 calls
New vector                          :      0.000u      0.000s      0.000w     28 calls
HF: Form C                          :      0.000u      0.000s      0.001w     28 calls
DFH: sparsity prep                  :      0.033u      0.000s      0.012w      1 calls
DFH: initialize()                   :      0.050u      0.000s      0.036w      1 calls
DFH: AO Construction                :      0.000u      0.000s      0.001w      1 calls
DFH: AO-Met. Contraction            :      0.000u      0.000s      0.000w      1 calls

--------------------------------------------------------------------------------------
Total PK formation time             :      0.067u      0.000s      0.047w      2 calls
HF: Form core H                     :      0.000u      0.000s      0.001w      3 calls
HF: Form S/X                        :      0.000u      0.000s      0.000w      3 calls
HF: Guess                           :      0.650u      0.000s      0.378w      3 calls
| SAD Guess                         :      0.600u      0.000s      0.352w      3 calls
HF: Form G                          :      0.000u      0.000s      0.001w     31 calls
| JK: D                             :      0.000u      0.000s      0.000w     31 calls
| JK: USO2AO                        :      0.000u      0.000s      0.000w     31 calls
| JK: JK                            :      0.000u      0.000s      0.001w     31 calls
| | PK computes JK                  :      0.000u      0.000s      0.000w     22 calls
| | DFH: compute_JK()               :      0.000u      0.000s      0.000w      9 calls
| | | DFH: Grabbing AOs             :      0.000u      0.000s      0.000w      9 calls
| | | DFH: compute_J                :      0.000u      0.000s      0.000w      9 calls
| | | DFH: compute_K                :      0.000u      0.000s      0.000w      9 calls
| JK: AO2USO                        :      0.000u      0.000s      0.000w     31 calls
HF: Form F                          :      0.000u      0.000s      0.000w     31 calls
HF: Form D                          :      0.000u      0.000s      0.000w     31 calls
HF: DIIS                            :      0.017u      0.000s      0.011w     28 calls
| DIISManager::add_entry            :      0.000u      0.000s      0.001w     28 calls
| DIISManager::extrapolate          :      0.000u      0.000s      0.002w     28 calls
| | bMatrix setup                   :      0.000u      0.000s      0.001w     28 calls
| | bMatrix pseudoinverse           :      0.000u      0.000s      0.001w     28 calls
| | New vector                      :      0.000u      0.000s      0.000w     28 calls
HF: Form C                          :      0.000u      0.000s      0.001w     28 calls
DFH: sparsity prep                  :      0.033u      0.000s      0.012w      1 calls
DFH: initialize()                   :      0.050u      0.000s      0.036w      1 calls
| DFH: AO Construction              :      0.000u      0.000s      0.001w      1 calls
| DFH: AO-Met. Contraction          :      0.000u      0.000s      0.000w      1 calls

**************************************************************************************

Host: davis-ws

Timers On : Fri Feb 28 10:08:30 2020
Timers Off: Fri Feb 28 10:09:04 2020

Wall Time:       34.64 seconds

                                                       Time (seconds)
Module                                       User      System        Wall        Calls
Total PK formation time             :      0.067u      0.000s      0.041w      2 calls
HF: Form core H                     :      0.000u      0.000s      0.001w      3 calls
HF: Form S/X                        :      0.000u      0.000s      0.000w      3 calls
HF: Guess                           :      0.567u      0.000s      0.351w      3 calls
SAD Guess                           :      0.517u      0.000s      0.328w      3 calls
HF: Form G                          :      0.000u      0.000s      0.001w     27 calls
JK: D                               :      0.000u      0.000s      0.000w     27 calls
JK: USO2AO                          :      0.000u      0.000s      0.000w     27 calls
JK: JK                              :      0.000u      0.000s      0.000w     27 calls
PK computes JK                      :      0.000u      0.000s      0.000w     18 calls
DFH: compute_JK()                   :      0.000u      0.000s      0.000w      9 calls
DFH: Grabbing AOs                   :      0.000u      0.000s      0.000w      9 calls
DFH: compute_J                      :      0.000u      0.000s      0.000w      9 calls
DFH: compute_K                      :      0.000u      0.000s      0.000w      9 calls
JK: AO2USO                          :      0.000u      0.000s      0.000w     27 calls
HF: Form F                          :      0.000u      0.000s      0.000w     27 calls
HF: Form D                          :      0.000u      0.000s      0.000w     27 calls
HF: DIIS                            :      0.000u      0.000s      0.008w     24 calls
DIISManager::add_entry              :      0.000u      0.000s      0.001w     24 calls
DIISManager::extrapolate            :      0.000u      0.000s      0.001w     24 calls
bMatrix setup                       :      0.000u      0.000s      0.000w     24 calls
bMatrix pseudoinverse               :      0.000u      0.000s      0.000w     24 calls
New vector                          :      0.000u      0.000s      0.000w     24 calls
HF: Form C                          :      0.000u      0.000s      0.000w     24 calls
DFH: sparsity prep                  :      0.017u      0.000s      0.011w      1 calls
DFH: initialize()                   :      0.067u      0.000s      0.034w      1 calls
DFH: AO Construction                :      0.000u      0.000s      0.001w      1 calls
DFH: AO-Met. Contraction            :      0.000u      0.000s      0.000w      1 calls

--------------------------------------------------------------------------------------
Total PK formation time             :      0.067u      0.000s      0.041w      2 calls
HF: Form core H                     :      0.000u      0.000s      0.001w      3 calls
HF: Form S/X                        :      0.000u      0.000s      0.000w      3 calls
HF: Guess                           :      0.567u      0.000s      0.351w      3 calls
| SAD Guess                         :      0.517u      0.000s      0.328w      3 calls
HF: Form G                          :      0.000u      0.000s      0.001w     27 calls
| JK: D                             :      0.000u      0.000s      0.000w     27 calls
| JK: USO2AO                        :      0.000u      0.000s      0.000w     27 calls
| JK: JK                            :      0.000u      0.000s      0.000w     27 calls
| | PK computes JK                  :      0.000u      0.000s      0.000w     18 calls
| | DFH: compute_JK()               :      0.000u      0.000s      0.000w      9 calls
| | | DFH: Grabbing AOs             :      0.000u      0.000s      0.000w      9 calls
| | | DFH: compute_J                :      0.000u      0.000s      0.000w      9 calls
| | | DFH: compute_K                :      0.000u      0.000s      0.000w      9 calls
| JK: AO2USO                        :      0.000u      0.000s      0.000w     27 calls
HF: Form F                          :      0.000u      0.000s      0.000w     27 calls
HF: Form D                          :      0.000u      0.000s      0.000w     27 calls
HF: DIIS                            :      0.000u      0.000s      0.008w     24 calls
| DIISManager::add_entry            :      0.000u      0.000s      0.001w     24 calls
| DIISManager::extrapolate          :      0.000u      0.000s      0.001w     24 calls
| | bMatrix setup                   :      0.000u      0.000s      0.000w     24 calls
| | bMatrix pseudoinverse           :      0.000u      0.000s      0.000w     24 calls
| | New vector                      :      0.000u      0.000s      0.000w     24 calls
HF: Form C                          :      0.000u      0.000s      0.000w     24 calls
DFH: sparsity prep                  :      0.017u      0.000s      0.011w      1 calls
DFH: initialize()                   :      0.067u      0.000s      0.034w      1 calls
| DFH: AO Construction              :      0.000u      0.000s      0.001w      1 calls
| DFH: AO-Met. Contraction          :      0.000u      0.000s      0.000w      1 calls

**************************************************************************************

Host: davis-ws

Timers On : Fri Feb 28 15:07:50 2020
Timers Off: Fri Feb 28 17:30:02 2020

Wall Time:     8531.38 seconds

                                                       Time (seconds)
Module                                       User      System        Wall        Calls
Total PK formation time             :     71.700u      0.800s      7.272w    195 calls
HF: Form core H                     :      1.383u      0.050s      0.118w    260 calls
HF: Form S/X                        :      0.117u      0.000s      0.016w    260 calls
HF: Guess                           :    402.350u      6.083s     40.853w    260 calls
SAD Guess                           :    380.583u      5.633s     38.624w    260 calls
HF: Form G                          :      1.000u      0.000s      0.164w   3057 calls
JK: D                               :      0.000u      0.000s      0.013w   3057 calls
JK: USO2AO                          :      0.033u      0.000s      0.008w   3057 calls
JK: JK                              :      0.800u      0.000s      0.086w   3057 calls
PK computes JK                      :      0.550u      0.000s      0.019w   2341 calls
DFH: compute_JK()                   :      0.200u      0.000s      0.058w    716 calls
DFH: Grabbing AOs                   :      0.000u      0.000s      0.002w    716 calls
DFH: compute_J                      :      0.033u      0.000s      0.013w    716 calls
DFH: compute_K                      :      0.033u      0.000s      0.015w    716 calls
JK: AO2USO                          :      0.017u      0.000s      0.004w   3057 calls
HF: Form F                          :      0.117u      0.000s      0.026w   3057 calls
HF: Form D                          :      0.150u      0.000s      0.020w   3057 calls
HF: DIIS                            :     11.100u      0.150s      1.101w   2797 calls
DIISManager::add_entry              :      1.050u      0.033s      0.104w   2797 calls
DIISManager::extrapolate            :      2.183u      0.000s      0.184w   2797 calls
bMatrix setup                       :      0.683u      0.000s      0.067w   2797 calls
bMatrix pseudoinverse               :      0.717u      0.000s      0.058w   2797 calls
New vector                          :      0.583u      0.000s      0.043w   2797 calls
HF: Form C                          :      0.967u      0.050s      0.078w   2797 calls
DFH: sparsity prep                  :      6.983u      0.033s      0.722w     65 calls
DFH: initialize()                   :     36.533u      0.617s      3.719w     65 calls
DFH: AO Construction                :      0.117u      0.000s      0.015w     65 calls
DFH: AO-Met. Contraction            :      0.000u      0.000s      0.002w     65 calls

--------------------------------------------------------------------------------------
Total PK formation time             :     71.700u      0.800s      7.272w    195 calls
HF: Form core H                     :      1.383u      0.050s      0.118w    260 calls
HF: Form S/X                        :      0.117u      0.000s      0.016w    260 calls
HF: Guess                           :    402.350u      6.083s     40.853w    260 calls
| SAD Guess                         :    380.583u      5.633s     38.624w    260 calls
HF: Form G                          :      1.000u      0.000s      0.164w   3057 calls
| JK: D                             :      0.000u      0.000s      0.013w   3057 calls
| JK: USO2AO                        :      0.033u      0.000s      0.008w   3057 calls
| JK: JK                            :      0.800u      0.000s      0.086w   3057 calls
| | PK computes JK                  :      0.550u      0.000s      0.019w   2341 calls
| | DFH: compute_JK()               :      0.200u      0.000s      0.058w    716 calls
| | | DFH: Grabbing AOs             :      0.000u      0.000s      0.002w    716 calls
| | | DFH: compute_J                :      0.033u      0.000s      0.013w    716 calls
| | | DFH: compute_K                :      0.033u      0.000s      0.015w    716 calls
| JK: AO2USO                        :      0.017u      0.000s      0.004w   3057 calls
HF: Form F                          :      0.117u      0.000s      0.026w   3057 calls
HF: Form D                          :      0.150u      0.000s      0.020w   3057 calls
HF: DIIS                            :     11.100u      0.150s      1.101w   2797 calls
| DIISManager::add_entry            :      1.050u      0.033s      0.104w   2797 calls
| DIISManager::extrapolate          :      2.183u      0.000s      0.184w   2797 calls
| | bMatrix setup                   :      0.683u      0.000s      0.067w   2797 calls
| | bMatrix pseudoinverse           :      0.717u      0.000s      0.058w   2797 calls
| | New vector                      :      0.583u      0.000s      0.043w   2797 calls
HF: Form C                          :      0.967u      0.050s      0.078w   2797 calls
DFH: sparsity prep                  :      6.983u      0.033s      0.722w     65 calls
DFH: initialize()                   :     36.533u      0.617s      3.719w     65 calls
| DFH: AO Construction              :      0.117u      0.000s      0.015w     65 calls
| DFH: AO-Met. Contraction          :      0.000u      0.000s      0.002w     65 calls

**************************************************************************************

Host: davis-ws

Timers On : Tue May  5 13:19:40 2020
Timers Off: Tue May  5 13:20:44 2020

Wall Time:       63.94 seconds

                                                       Time (seconds)
Module                                       User      System        Wall        Calls
Total PK formation time             :      1.850u      0.017s      0.237w      8 calls
HF: Form core H                     :      0.017u      0.000s      0.004w      9 calls
HF: Form S/X                        :      0.000u      0.000s      0.002w      9 calls
HF: Guess                           :      9.500u      0.133s      1.214w      9 calls
SAD Guess                           :      8.933u      0.133s      1.140w      9 calls
HF: Form G                          :      0.033u      0.000s      0.003w    102 calls
JK: D                               :      0.000u      0.000s      0.000w    102 calls
JK: USO2AO                          :      0.000u      0.000s      0.000w    102 calls
JK: JK                              :      0.017u      0.000s      0.001w    102 calls
PK computes JK                      :      0.017u      0.000s      0.001w     90 calls
DFH: compute_JK()                   :      0.000u      0.000s      0.000w     12 calls
DFH: Grabbing AOs                   :      0.000u      0.000s      0.000w     12 calls
DFH: compute_J                      :      0.000u      0.000s      0.000w     12 calls
DFH: compute_K                      :      0.000u      0.000s      0.000w     12 calls
JK: AO2USO                          :      0.000u      0.000s      0.000w    102 calls
HF: Form F                          :      0.000u      0.000s      0.001w    102 calls
HF: Form D                          :      0.017u      0.000s      0.001w    102 calls
HF: DIIS                            :      0.333u      0.000s      0.033w     93 calls
DIISManager::add_entry              :      0.050u      0.000s      0.003w     93 calls
DIISManager::extrapolate            :      0.050u      0.000s      0.006w     93 calls
bMatrix setup                       :      0.033u      0.000s      0.002w     93 calls
bMatrix pseudoinverse               :      0.017u      0.000s      0.002w     93 calls
New vector                          :      0.000u      0.000s      0.001w     93 calls
HF: Form C                          :      0.000u      0.000s      0.002w     93 calls
DFH: sparsity prep                  :      0.017u      0.000s      0.010w      1 calls
DFH: initialize()                   :      0.533u      0.000s      0.055w      1 calls
DFH: AO Construction                :      0.000u      0.000s      0.000w      1 calls
DFH: AO-Met. Contraction            :      0.000u      0.000s      0.000w      1 calls

--------------------------------------------------------------------------------------
Total PK formation time             :      1.850u      0.017s      0.237w      8 calls
HF: Form core H                     :      0.017u      0.000s      0.004w      9 calls
HF: Form S/X                        :      0.000u      0.000s      0.002w      9 calls
HF: Guess                           :      9.500u      0.133s      1.214w      9 calls
| SAD Guess                         :      8.933u      0.133s      1.140w      9 calls
HF: Form G                          :      0.033u      0.000s      0.003w    102 calls
| JK: D                             :      0.000u      0.000s      0.000w    102 calls
| JK: USO2AO                        :      0.000u      0.000s      0.000w    102 calls
| JK: JK                            :      0.017u      0.000s      0.001w    102 calls
| | PK computes JK                  :      0.017u      0.000s      0.001w     90 calls
| | DFH: compute_JK()               :      0.000u      0.000s      0.000w     12 calls
| | | DFH: Grabbing AOs             :      0.000u      0.000s      0.000w     12 calls
| | | DFH: compute_J                :      0.000u      0.000s      0.000w     12 calls
| | | DFH: compute_K                :      0.000u      0.000s      0.000w     12 calls
| JK: AO2USO                        :      0.000u      0.000s      0.000w    102 calls
HF: Form F                          :      0.000u      0.000s      0.001w    102 calls
HF: Form D                          :      0.017u      0.000s      0.001w    102 calls
HF: DIIS                            :      0.333u      0.000s      0.033w     93 calls
| DIISManager::add_entry            :      0.050u      0.000s      0.003w     93 calls
| DIISManager::extrapolate          :      0.050u      0.000s      0.006w     93 calls
| | bMatrix setup                   :      0.033u      0.000s      0.002w     93 calls
| | bMatrix pseudoinverse           :      0.017u      0.000s      0.002w     93 calls
| | New vector                      :      0.000u      0.000s      0.001w     93 calls
HF: Form C                          :      0.000u      0.000s      0.002w     93 calls
DFH: sparsity prep                  :      0.017u      0.000s      0.010w      1 calls
DFH: initialize()                   :      0.533u      0.000s      0.055w      1 calls
| DFH: AO Construction              :      0.000u      0.000s      0.000w      1 calls
| DFH: AO-Met. Contraction          :      0.000u      0.000s      0.000w      1 calls

**************************************************************************************

Host: davis-ws

Timers On : Tue May  5 13:26:17 2020
Timers Off: Tue May  5 13:27:17 2020

Wall Time:       60.59 seconds

                                                       Time (seconds)
Module                                       User      System        Wall        Calls
Total PK formation time             :      1.800u      0.033s      0.216w      7 calls
HF: Form core H                     :      0.033u      0.000s      0.004w      8 calls
HF: Form S/X                        :      0.000u      0.000s      0.001w      8 calls
HF: Guess                           :      9.283u      0.133s      1.092w      8 calls
SAD Guess                           :      8.750u      0.133s      1.026w      8 calls
HF: Form G                          :      0.033u      0.000s      0.003w     90 calls
JK: D                               :      0.000u      0.000s      0.000w     90 calls
JK: USO2AO                          :      0.000u      0.000s      0.000w     90 calls
JK: JK                              :      0.017u      0.000s      0.001w     90 calls
PK computes JK                      :      0.017u      0.000s      0.001w     78 calls
DFH: compute_JK()                   :      0.000u      0.000s      0.001w     12 calls
DFH: Grabbing AOs                   :      0.000u      0.000s      0.000w     12 calls
DFH: compute_J                      :      0.000u      0.000s      0.000w     12 calls
DFH: compute_K                      :      0.000u      0.000s      0.000w     12 calls
JK: AO2USO                          :      0.017u      0.000s      0.000w     90 calls
HF: Form F                          :      0.000u      0.000s      0.001w     90 calls
HF: Form D                          :      0.017u      0.000s      0.000w     90 calls
HF: DIIS                            :      0.267u      0.000s      0.030w     82 calls
DIISManager::add_entry              :      0.017u      0.000s      0.003w     82 calls
DIISManager::extrapolate            :      0.033u      0.000s      0.005w     82 calls
bMatrix setup                       :      0.017u      0.000s      0.002w     82 calls
bMatrix pseudoinverse               :      0.000u      0.000s      0.002w     82 calls
New vector                          :      0.000u      0.000s      0.001w     82 calls
HF: Form C                          :      0.033u      0.000s      0.002w     82 calls
DFH: sparsity prep                  :      0.017u      0.000s      0.012w      1 calls
DFH: initialize()                   :      0.517u      0.017s      0.054w      1 calls
DFH: AO Construction                :      0.000u      0.000s      0.000w      1 calls
DFH: AO-Met. Contraction            :      0.000u      0.000s      0.000w      1 calls

--------------------------------------------------------------------------------------
Total PK formation time             :      1.800u      0.033s      0.216w      7 calls
HF: Form core H                     :      0.033u      0.000s      0.004w      8 calls
HF: Form S/X                        :      0.000u      0.000s      0.001w      8 calls
HF: Guess                           :      9.283u      0.133s      1.092w      8 calls
| SAD Guess                         :      8.750u      0.133s      1.026w      8 calls
HF: Form G                          :      0.033u      0.000s      0.003w     90 calls
| JK: D                             :      0.000u      0.000s      0.000w     90 calls
| JK: USO2AO                        :      0.000u      0.000s      0.000w     90 calls
| JK: JK                            :      0.017u      0.000s      0.001w     90 calls
| | PK computes JK                  :      0.017u      0.000s      0.001w     78 calls
| | DFH: compute_JK()               :      0.000u      0.000s      0.001w     12 calls
| | | DFH: Grabbing AOs             :      0.000u      0.000s      0.000w     12 calls
| | | DFH: compute_J                :      0.000u      0.000s      0.000w     12 calls
| | | DFH: compute_K                :      0.000u      0.000s      0.000w     12 calls
| JK: AO2USO                        :      0.017u      0.000s      0.000w     90 calls
HF: Form F                          :      0.000u      0.000s      0.001w     90 calls
HF: Form D                          :      0.017u      0.000s      0.000w     90 calls
HF: DIIS                            :      0.267u      0.000s      0.030w     82 calls
| DIISManager::add_entry            :      0.017u      0.000s      0.003w     82 calls
| DIISManager::extrapolate          :      0.033u      0.000s      0.005w     82 calls
| | bMatrix setup                   :      0.017u      0.000s      0.002w     82 calls
| | bMatrix pseudoinverse           :      0.000u      0.000s      0.002w     82 calls
| | New vector                      :      0.000u      0.000s      0.001w     82 calls
HF: Form C                          :      0.033u      0.000s      0.002w     82 calls
DFH: sparsity prep                  :      0.017u      0.000s      0.012w      1 calls
DFH: initialize()                   :      0.517u      0.017s      0.054w      1 calls
| DFH: AO Construction              :      0.000u      0.000s      0.000w      1 calls
| DFH: AO-Met. Contraction          :      0.000u      0.000s      0.000w      1 calls

**************************************************************************************

Host: davis-ws

Timers On : Tue May  5 13:31:05 2020
Timers Off: Tue May  5 13:32:26 2020

Wall Time:       80.49 seconds

                                                       Time (seconds)
Module                                       User      System        Wall        Calls
Total PK formation time             :      2.467u      0.033s      0.285w      9 calls
HF: Form core H                     :      0.017u      0.000s      0.005w     11 calls
HF: Form S/X                        :      0.017u      0.000s      0.001w     11 calls
HF: Guess                           :     13.883u      0.167s      1.549w     11 calls
SAD Guess                           :     13.117u      0.167s      1.460w     11 calls
HF: Form G                          :      0.083u      0.000s      0.005w    121 calls
JK: D                               :      0.000u      0.000s      0.000w    121 calls
JK: USO2AO                          :      0.000u      0.000s      0.000w    121 calls
JK: JK                              :      0.050u      0.000s      0.002w    121 calls
PK computes JK                      :      0.050u      0.000s      0.001w    100 calls
DFH: compute_JK()                   :      0.000u      0.000s      0.001w     21 calls
DFH: Grabbing AOs                   :      0.000u      0.000s      0.000w     21 calls
DFH: compute_J                      :      0.000u      0.000s      0.000w     21 calls
DFH: compute_K                      :      0.000u      0.000s      0.000w     21 calls
JK: AO2USO                          :      0.017u      0.000s      0.000w    121 calls
HF: Form F                          :      0.017u      0.000s      0.001w    121 calls
HF: Form D                          :      0.000u      0.000s      0.001w    121 calls
HF: DIIS                            :      0.367u      0.000s      0.040w    110 calls
DIISManager::add_entry              :      0.050u      0.000s      0.003w    110 calls
DIISManager::extrapolate            :      0.033u      0.000s      0.007w    110 calls
bMatrix setup                       :      0.017u      0.000s      0.002w    110 calls
bMatrix pseudoinverse               :      0.017u      0.000s      0.002w    110 calls
New vector                          :      0.000u      0.000s      0.002w    110 calls
HF: Form C                          :      0.017u      0.000s      0.003w    110 calls
DFH: sparsity prep                  :      0.117u      0.000s      0.021w      2 calls
DFH: initialize()                   :      1.083u      0.000s      0.108w      2 calls
DFH: AO Construction                :      0.017u      0.000s      0.000w      2 calls
DFH: AO-Met. Contraction            :      0.000u      0.000s      0.000w      2 calls

--------------------------------------------------------------------------------------
Total PK formation time             :      2.467u      0.033s      0.285w      9 calls
HF: Form core H                     :      0.017u      0.000s      0.005w     11 calls
HF: Form S/X                        :      0.017u      0.000s      0.001w     11 calls
HF: Guess                           :     13.883u      0.167s      1.549w     11 calls
| SAD Guess                         :     13.117u      0.167s      1.460w     11 calls
HF: Form G                          :      0.083u      0.000s      0.005w    121 calls
| JK: D                             :      0.000u      0.000s      0.000w    121 calls
| JK: USO2AO                        :      0.000u      0.000s      0.000w    121 calls
| JK: JK                            :      0.050u      0.000s      0.002w    121 calls
| | PK computes JK                  :      0.050u      0.000s      0.001w    100 calls
| | DFH: compute_JK()               :      0.000u      0.000s      0.001w     21 calls
| | | DFH: Grabbing AOs             :      0.000u      0.000s      0.000w     21 calls
| | | DFH: compute_J                :      0.000u      0.000s      0.000w     21 calls
| | | DFH: compute_K                :      0.000u      0.000s      0.000w     21 calls
| JK: AO2USO                        :      0.017u      0.000s      0.000w    121 calls
HF: Form F                          :      0.017u      0.000s      0.001w    121 calls
HF: Form D                          :      0.000u      0.000s      0.001w    121 calls
HF: DIIS                            :      0.367u      0.000s      0.040w    110 calls
| DIISManager::add_entry            :      0.050u      0.000s      0.003w    110 calls
| DIISManager::extrapolate          :      0.033u      0.000s      0.007w    110 calls
| | bMatrix setup                   :      0.017u      0.000s      0.002w    110 calls
| | bMatrix pseudoinverse           :      0.017u      0.000s      0.002w    110 calls
| | New vector                      :      0.000u      0.000s      0.002w    110 calls
HF: Form C                          :      0.017u      0.000s      0.003w    110 calls
DFH: sparsity prep                  :      0.117u      0.000s      0.021w      2 calls
DFH: initialize()                   :      1.083u      0.000s      0.108w      2 calls
| DFH: AO Construction              :      0.017u      0.000s      0.000w      2 calls
| DFH: AO-Met. Contraction          :      0.000u      0.000s      0.000w      2 calls

**************************************************************************************
