
Host: penguin

Timers On : Thu Jan  9 19:19:07 2020
Timers Off: Thu Jan  9 19:19:19 2020

Wall Time:       12.20 seconds

                                                       Time (seconds)
Module                                       User      System        Wall        Calls
Total PK formation time             :      0.100u      0.000s      0.064w      2 calls
HF: Form core H                     :      0.000u      0.017s      0.001w      2 calls
HF: Form S/X                        :      0.000u      0.000s      0.000w      2 calls
HF: Guess                           :      0.583u      0.000s      0.345w      2 calls
SAD Guess                           :      0.550u      0.000s      0.322w      2 calls
HF: Form G                          :      0.000u      0.000s      0.001w     22 calls
JK: D                               :      0.000u      0.000s      0.000w     22 calls
JK: USO2AO                          :      0.000u      0.000s      0.000w     22 calls
JK: JK                              :      0.000u      0.000s      0.000w     22 calls
PK computes JK                      :      0.000u      0.000s      0.000w     22 calls
JK: AO2USO                          :      0.000u      0.000s      0.000w     22 calls
HF: Form F                          :      0.000u      0.000s      0.000w     22 calls
HF: Form D                          :      0.000u      0.000s      0.000w     22 calls
HF: DIIS                            :      0.017u      0.000s      0.012w     20 calls
DIISManager::add_entry              :      0.000u      0.000s      0.001w     20 calls
DIISManager::extrapolate            :      0.000u      0.000s      0.002w     20 calls
bMatrix setup                       :      0.000u      0.000s      0.001w     20 calls
bMatrix pseudoinverse               :      0.000u      0.000s      0.001w     20 calls
New vector                          :      0.000u      0.000s      0.001w     20 calls
HF: Form C                          :      0.000u      0.000s      0.001w     20 calls

--------------------------------------------------------------------------------------
Total PK formation time             :      0.100u      0.000s      0.064w      2 calls
HF: Form core H                     :      0.000u      0.017s      0.001w      2 calls
HF: Form S/X                        :      0.000u      0.000s      0.000w      2 calls
HF: Guess                           :      0.583u      0.000s      0.345w      2 calls
| SAD Guess                         :      0.550u      0.000s      0.322w      2 calls
HF: Form G                          :      0.000u      0.000s      0.001w     22 calls
| JK: D                             :      0.000u      0.000s      0.000w     22 calls
| JK: USO2AO                        :      0.000u      0.000s      0.000w     22 calls
| JK: JK                            :      0.000u      0.000s      0.000w     22 calls
| | PK computes JK                  :      0.000u      0.000s      0.000w     22 calls
| JK: AO2USO                        :      0.000u      0.000s      0.000w     22 calls
HF: Form F                          :      0.000u      0.000s      0.000w     22 calls
HF: Form D                          :      0.000u      0.000s      0.000w     22 calls
HF: DIIS                            :      0.017u      0.000s      0.012w     20 calls
| DIISManager::add_entry            :      0.000u      0.000s      0.001w     20 calls
| DIISManager::extrapolate          :      0.000u      0.000s      0.002w     20 calls
| | bMatrix setup                   :      0.000u      0.000s      0.001w     20 calls
| | bMatrix pseudoinverse           :      0.000u      0.000s      0.001w     20 calls
| | New vector                      :      0.000u      0.000s      0.001w     20 calls
HF: Form C                          :      0.000u      0.000s      0.001w     20 calls

**************************************************************************************

Host: penguin

Timers On : Thu Jan  9 19:19:50 2020
Timers Off: Thu Jan  9 19:20:00 2020

Wall Time:       10.26 seconds

                                                       Time (seconds)
Module                                       User      System        Wall        Calls
Total PK formation time             :      0.100u      0.000s      0.061w      2 calls
HF: Form core H                     :      0.000u      0.000s      0.001w      2 calls
HF: Form S/X                        :      0.000u      0.000s      0.000w      2 calls
HF: Guess                           :      0.550u      0.000s      0.325w      2 calls
SAD Guess                           :      0.500u      0.000s      0.303w      2 calls
HF: Form G                          :      0.000u      0.000s      0.001w     22 calls
JK: D                               :      0.000u      0.000s      0.000w     22 calls
JK: USO2AO                          :      0.000u      0.000s      0.000w     22 calls
JK: JK                              :      0.000u      0.000s      0.000w     22 calls
PK computes JK                      :      0.000u      0.000s      0.000w     22 calls
JK: AO2USO                          :      0.000u      0.000s      0.000w     22 calls
HF: Form F                          :      0.000u      0.000s      0.000w     22 calls
HF: Form D                          :      0.000u      0.000s      0.000w     22 calls
HF: DIIS                            :      0.000u      0.000s      0.011w     20 calls
DIISManager::add_entry              :      0.000u      0.000s      0.001w     20 calls
DIISManager::extrapolate            :      0.000u      0.000s      0.002w     20 calls
bMatrix setup                       :      0.000u      0.000s      0.001w     20 calls
bMatrix pseudoinverse               :      0.000u      0.000s      0.001w     20 calls
New vector                          :      0.000u      0.000s      0.000w     20 calls
HF: Form C                          :      0.000u      0.000s      0.001w     20 calls

--------------------------------------------------------------------------------------
Total PK formation time             :      0.100u      0.000s      0.061w      2 calls
HF: Form core H                     :      0.000u      0.000s      0.001w      2 calls
HF: Form S/X                        :      0.000u      0.000s      0.000w      2 calls
HF: Guess                           :      0.550u      0.000s      0.325w      2 calls
| SAD Guess                         :      0.500u      0.000s      0.303w      2 calls
HF: Form G                          :      0.000u      0.000s      0.001w     22 calls
| JK: D                             :      0.000u      0.000s      0.000w     22 calls
| JK: USO2AO                        :      0.000u      0.000s      0.000w     22 calls
| JK: JK                            :      0.000u      0.000s      0.000w     22 calls
| | PK computes JK                  :      0.000u      0.000s      0.000w     22 calls
| JK: AO2USO                        :      0.000u      0.000s      0.000w     22 calls
HF: Form F                          :      0.000u      0.000s      0.000w     22 calls
HF: Form D                          :      0.000u      0.000s      0.000w     22 calls
HF: DIIS                            :      0.000u      0.000s      0.011w     20 calls
| DIISManager::add_entry            :      0.000u      0.000s      0.001w     20 calls
| DIISManager::extrapolate          :      0.000u      0.000s      0.002w     20 calls
| | bMatrix setup                   :      0.000u      0.000s      0.001w     20 calls
| | bMatrix pseudoinverse           :      0.000u      0.000s      0.001w     20 calls
| | New vector                      :      0.000u      0.000s      0.000w     20 calls
HF: Form C                          :      0.000u      0.000s      0.001w     20 calls

**************************************************************************************

Host: penguin

Timers On : Thu Jan  9 19:26:46 2020
Timers Off: Thu Jan  9 19:26:58 2020

Wall Time:       12.09 seconds

                                                       Time (seconds)
Module                                       User      System        Wall        Calls
Total PK formation time             :      0.100u      0.000s      0.061w      2 calls
HF: Form core H                     :      0.000u      0.000s      0.001w      2 calls
HF: Form S/X                        :      0.000u      0.017s      0.000w      2 calls
HF: Guess                           :      0.583u      0.000s      0.352w      2 calls
SAD Guess                           :      0.550u      0.000s      0.330w      2 calls
HF: Form G                          :      0.000u      0.000s      0.001w     22 calls
JK: D                               :      0.000u      0.000s      0.000w     22 calls
JK: USO2AO                          :      0.000u      0.000s      0.000w     22 calls
JK: JK                              :      0.000u      0.000s      0.000w     22 calls
PK computes JK                      :      0.000u      0.000s      0.000w     22 calls
JK: AO2USO                          :      0.000u      0.000s      0.000w     22 calls
HF: Form F                          :      0.000u      0.000s      0.000w     22 calls
HF: Form D                          :      0.000u      0.000s      0.000w     22 calls
HF: DIIS                            :      0.017u      0.000s      0.012w     20 calls
DIISManager::add_entry              :      0.000u      0.000s      0.001w     20 calls
DIISManager::extrapolate            :      0.000u      0.000s      0.002w     20 calls
bMatrix setup                       :      0.000u      0.000s      0.001w     20 calls
bMatrix pseudoinverse               :      0.000u      0.000s      0.001w     20 calls
New vector                          :      0.000u      0.000s      0.000w     20 calls
HF: Form C                          :      0.000u      0.000s      0.001w     20 calls

--------------------------------------------------------------------------------------
Total PK formation time             :      0.100u      0.000s      0.061w      2 calls
HF: Form core H                     :      0.000u      0.000s      0.001w      2 calls
HF: Form S/X                        :      0.000u      0.017s      0.000w      2 calls
HF: Guess                           :      0.583u      0.000s      0.352w      2 calls
| SAD Guess                         :      0.550u      0.000s      0.330w      2 calls
HF: Form G                          :      0.000u      0.000s      0.001w     22 calls
| JK: D                             :      0.000u      0.000s      0.000w     22 calls
| JK: USO2AO                        :      0.000u      0.000s      0.000w     22 calls
| JK: JK                            :      0.000u      0.000s      0.000w     22 calls
| | PK computes JK                  :      0.000u      0.000s      0.000w     22 calls
| JK: AO2USO                        :      0.000u      0.000s      0.000w     22 calls
HF: Form F                          :      0.000u      0.000s      0.000w     22 calls
HF: Form D                          :      0.000u      0.000s      0.000w     22 calls
HF: DIIS                            :      0.017u      0.000s      0.012w     20 calls
| DIISManager::add_entry            :      0.000u      0.000s      0.001w     20 calls
| DIISManager::extrapolate          :      0.000u      0.000s      0.002w     20 calls
| | bMatrix setup                   :      0.000u      0.000s      0.001w     20 calls
| | bMatrix pseudoinverse           :      0.000u      0.000s      0.001w     20 calls
| | New vector                      :      0.000u      0.000s      0.000w     20 calls
HF: Form C                          :      0.000u      0.000s      0.001w     20 calls

**************************************************************************************

Host: penguin

Timers On : Thu Jan  9 19:27:49 2020
Timers Off: Thu Jan  9 19:28:03 2020

Wall Time:       13.64 seconds

                                                       Time (seconds)
Module                                       User      System        Wall        Calls
Total PK formation time             :      0.100u      0.000s      0.065w      2 calls
HF: Form core H                     :      0.000u      0.000s      0.001w      2 calls
HF: Form S/X                        :      0.000u      0.000s      0.000w      2 calls
HF: Guess                           :      0.600u      0.000s      0.358w      2 calls
SAD Guess                           :      0.550u      0.000s      0.335w      2 calls
HF: Form G                          :      0.000u      0.000s      0.001w     22 calls
JK: D                               :      0.000u      0.000s      0.000w     22 calls
JK: USO2AO                          :      0.000u      0.000s      0.000w     22 calls
JK: JK                              :      0.000u      0.000s      0.000w     22 calls
PK computes JK                      :      0.000u      0.000s      0.000w     22 calls
JK: AO2USO                          :      0.000u      0.000s      0.000w     22 calls
HF: Form F                          :      0.000u      0.000s      0.000w     22 calls
HF: Form D                          :      0.000u      0.000s      0.000w     22 calls
HF: DIIS                            :      0.017u      0.000s      0.013w     20 calls
DIISManager::add_entry              :      0.000u      0.000s      0.001w     20 calls
DIISManager::extrapolate            :      0.000u      0.000s      0.003w     20 calls
bMatrix setup                       :      0.000u      0.000s      0.001w     20 calls
bMatrix pseudoinverse               :      0.000u      0.000s      0.001w     20 calls
New vector                          :      0.000u      0.000s      0.001w     20 calls
HF: Form C                          :      0.000u      0.000s      0.001w     20 calls

--------------------------------------------------------------------------------------
Total PK formation time             :      0.100u      0.000s      0.065w      2 calls
HF: Form core H                     :      0.000u      0.000s      0.001w      2 calls
HF: Form S/X                        :      0.000u      0.000s      0.000w      2 calls
HF: Guess                           :      0.600u      0.000s      0.358w      2 calls
| SAD Guess                         :      0.550u      0.000s      0.335w      2 calls
HF: Form G                          :      0.000u      0.000s      0.001w     22 calls
| JK: D                             :      0.000u      0.000s      0.000w     22 calls
| JK: USO2AO                        :      0.000u      0.000s      0.000w     22 calls
| JK: JK                            :      0.000u      0.000s      0.000w     22 calls
| | PK computes JK                  :      0.000u      0.000s      0.000w     22 calls
| JK: AO2USO                        :      0.000u      0.000s      0.000w     22 calls
HF: Form F                          :      0.000u      0.000s      0.000w     22 calls
HF: Form D                          :      0.000u      0.000s      0.000w     22 calls
HF: DIIS                            :      0.017u      0.000s      0.013w     20 calls
| DIISManager::add_entry            :      0.000u      0.000s      0.001w     20 calls
| DIISManager::extrapolate          :      0.000u      0.000s      0.003w     20 calls
| | bMatrix setup                   :      0.000u      0.000s      0.001w     20 calls
| | bMatrix pseudoinverse           :      0.000u      0.000s      0.001w     20 calls
| | New vector                      :      0.000u      0.000s      0.001w     20 calls
HF: Form C                          :      0.000u      0.000s      0.001w     20 calls

**************************************************************************************

Host: penguin

Timers On : Thu Jan  9 19:28:32 2020
Timers Off: Thu Jan  9 19:28:42 2020

Wall Time:        9.87 seconds

                                                       Time (seconds)
Module                                       User      System        Wall        Calls
Total PK formation time             :      0.100u      0.000s      0.065w      2 calls
HF: Form core H                     :      0.017u      0.000s      0.001w      2 calls
HF: Form S/X                        :      0.000u      0.000s      0.000w      2 calls
HF: Guess                           :      0.583u      0.017s      0.362w      2 calls
SAD Guess                           :      0.550u      0.017s      0.338w      2 calls
HF: Form G                          :      0.000u      0.000s      0.001w     22 calls
JK: D                               :      0.000u      0.000s      0.000w     22 calls
JK: USO2AO                          :      0.000u      0.000s      0.000w     22 calls
JK: JK                              :      0.000u      0.000s      0.000w     22 calls
PK computes JK                      :      0.000u      0.000s      0.000w     22 calls
JK: AO2USO                          :      0.000u      0.000s      0.000w     22 calls
HF: Form F                          :      0.000u      0.000s      0.000w     22 calls
HF: Form D                          :      0.000u      0.000s      0.000w     22 calls
HF: DIIS                            :      0.000u      0.000s      0.011w     20 calls
DIISManager::add_entry              :      0.000u      0.000s      0.001w     20 calls
DIISManager::extrapolate            :      0.000u      0.000s      0.002w     20 calls
bMatrix setup                       :      0.000u      0.000s      0.001w     20 calls
bMatrix pseudoinverse               :      0.000u      0.000s      0.001w     20 calls
New vector                          :      0.000u      0.000s      0.000w     20 calls
HF: Form C                          :      0.000u      0.000s      0.001w     20 calls

--------------------------------------------------------------------------------------
Total PK formation time             :      0.100u      0.000s      0.065w      2 calls
HF: Form core H                     :      0.017u      0.000s      0.001w      2 calls
HF: Form S/X                        :      0.000u      0.000s      0.000w      2 calls
HF: Guess                           :      0.583u      0.017s      0.362w      2 calls
| SAD Guess                         :      0.550u      0.017s      0.338w      2 calls
HF: Form G                          :      0.000u      0.000s      0.001w     22 calls
| JK: D                             :      0.000u      0.000s      0.000w     22 calls
| JK: USO2AO                        :      0.000u      0.000s      0.000w     22 calls
| JK: JK                            :      0.000u      0.000s      0.000w     22 calls
| | PK computes JK                  :      0.000u      0.000s      0.000w     22 calls
| JK: AO2USO                        :      0.000u      0.000s      0.000w     22 calls
HF: Form F                          :      0.000u      0.000s      0.000w     22 calls
HF: Form D                          :      0.000u      0.000s      0.000w     22 calls
HF: DIIS                            :      0.000u      0.000s      0.011w     20 calls
| DIISManager::add_entry            :      0.000u      0.000s      0.001w     20 calls
| DIISManager::extrapolate          :      0.000u      0.000s      0.002w     20 calls
| | bMatrix setup                   :      0.000u      0.000s      0.001w     20 calls
| | bMatrix pseudoinverse           :      0.000u      0.000s      0.001w     20 calls
| | New vector                      :      0.000u      0.000s      0.000w     20 calls
HF: Form C                          :      0.000u      0.000s      0.001w     20 calls

**************************************************************************************

Host: penguin

Timers On : Thu Jan  9 19:30:20 2020
Timers Off: Thu Jan  9 19:30:30 2020

Wall Time:       10.06 seconds

                                                       Time (seconds)
Module                                       User      System        Wall        Calls
Total PK formation time             :      0.100u      0.000s      0.064w      2 calls
HF: Form core H                     :      0.000u      0.000s      0.001w      2 calls
HF: Form S/X                        :      0.000u      0.000s      0.000w      2 calls
HF: Guess                           :      0.567u      0.000s      0.341w      2 calls
SAD Guess                           :      0.533u      0.000s      0.317w      2 calls
HF: Form G                          :      0.017u      0.000s      0.001w     22 calls
JK: D                               :      0.000u      0.000s      0.000w     22 calls
JK: USO2AO                          :      0.000u      0.000s      0.000w     22 calls
JK: JK                              :      0.000u      0.000s      0.000w     22 calls
PK computes JK                      :      0.000u      0.000s      0.000w     22 calls
JK: AO2USO                          :      0.000u      0.000s      0.000w     22 calls
HF: Form F                          :      0.000u      0.000s      0.000w     22 calls
HF: Form D                          :      0.000u      0.000s      0.000w     22 calls
HF: DIIS                            :      0.000u      0.000s      0.012w     20 calls
DIISManager::add_entry              :      0.000u      0.000s      0.001w     20 calls
DIISManager::extrapolate            :      0.000u      0.000s      0.003w     20 calls
bMatrix setup                       :      0.000u      0.000s      0.001w     20 calls
bMatrix pseudoinverse               :      0.000u      0.000s      0.001w     20 calls
New vector                          :      0.000u      0.000s      0.000w     20 calls
HF: Form C                          :      0.000u      0.000s      0.001w     20 calls

--------------------------------------------------------------------------------------
Total PK formation time             :      0.100u      0.000s      0.064w      2 calls
HF: Form core H                     :      0.000u      0.000s      0.001w      2 calls
HF: Form S/X                        :      0.000u      0.000s      0.000w      2 calls
HF: Guess                           :      0.567u      0.000s      0.341w      2 calls
| SAD Guess                         :      0.533u      0.000s      0.317w      2 calls
HF: Form G                          :      0.017u      0.000s      0.001w     22 calls
| JK: D                             :      0.000u      0.000s      0.000w     22 calls
| JK: USO2AO                        :      0.000u      0.000s      0.000w     22 calls
| JK: JK                            :      0.000u      0.000s      0.000w     22 calls
| | PK computes JK                  :      0.000u      0.000s      0.000w     22 calls
| JK: AO2USO                        :      0.000u      0.000s      0.000w     22 calls
HF: Form F                          :      0.000u      0.000s      0.000w     22 calls
HF: Form D                          :      0.000u      0.000s      0.000w     22 calls
HF: DIIS                            :      0.000u      0.000s      0.012w     20 calls
| DIISManager::add_entry            :      0.000u      0.000s      0.001w     20 calls
| DIISManager::extrapolate          :      0.000u      0.000s      0.003w     20 calls
| | bMatrix setup                   :      0.000u      0.000s      0.001w     20 calls
| | bMatrix pseudoinverse           :      0.000u      0.000s      0.001w     20 calls
| | New vector                      :      0.000u      0.000s      0.000w     20 calls
HF: Form C                          :      0.000u      0.000s      0.001w     20 calls

**************************************************************************************

Host: penguin

Timers On : Thu Jan  9 19:41:12 2020
Timers Off: Thu Jan  9 19:41:21 2020

Wall Time:        9.51 seconds

                                                       Time (seconds)
Module                                       User      System        Wall        Calls
DFH: sparsity prep                  :      0.067u      0.000s      0.031w      2 calls
DFH: initialize()                   :      0.167u      0.000s      0.106w      2 calls
DFH: AO Construction                :      0.017u      0.000s      0.002w      2 calls
DFH: AO-Met. Contraction            :      0.000u      0.000s      0.000w      2 calls
HF: Form core H                     :      0.000u      0.000s      0.001w      2 calls
HF: Form S/X                        :      0.000u      0.000s      0.000w      2 calls
HF: Guess                           :      0.600u      0.000s      0.368w      2 calls
SAD Guess                           :      0.567u      0.000s      0.344w      2 calls
HF: Form G                          :      0.000u      0.000s      0.002w     17 calls
JK: D                               :      0.000u      0.000s      0.000w     17 calls
JK: USO2AO                          :      0.000u      0.000s      0.000w     17 calls
JK: JK                              :      0.000u      0.000s      0.001w     17 calls
DFH: compute_JK()                   :      0.000u      0.000s      0.001w     17 calls
DFH: Grabbing AOs                   :      0.000u      0.000s      0.000w     17 calls
DFH: compute_J                      :      0.000u      0.000s      0.000w     17 calls
DFH: compute_K                      :      0.000u      0.000s      0.000w     17 calls
JK: AO2USO                          :      0.000u      0.000s      0.000w     17 calls
HF: Form F                          :      0.000u      0.000s      0.000w     17 calls
HF: Form D                          :      0.000u      0.000s      0.000w     17 calls
HF: DIIS                            :      0.000u      0.000s      0.008w     15 calls
DIISManager::add_entry              :      0.000u      0.000s      0.001w     15 calls
DIISManager::extrapolate            :      0.000u      0.000s      0.001w     15 calls
bMatrix setup                       :      0.000u      0.000s      0.000w     15 calls
bMatrix pseudoinverse               :      0.000u      0.000s      0.000w     15 calls
New vector                          :      0.000u      0.000s      0.000w     15 calls
HF: Form C                          :      0.000u      0.000s      0.001w     15 calls

--------------------------------------------------------------------------------------
DFH: sparsity prep                  :      0.067u      0.000s      0.031w      2 calls
DFH: initialize()                   :      0.167u      0.000s      0.106w      2 calls
| DFH: AO Construction              :      0.017u      0.000s      0.002w      2 calls
| DFH: AO-Met. Contraction          :      0.000u      0.000s      0.000w      2 calls
HF: Form core H                     :      0.000u      0.000s      0.001w      2 calls
HF: Form S/X                        :      0.000u      0.000s      0.000w      2 calls
HF: Guess                           :      0.600u      0.000s      0.368w      2 calls
| SAD Guess                         :      0.567u      0.000s      0.344w      2 calls
HF: Form G                          :      0.000u      0.000s      0.002w     17 calls
| JK: D                             :      0.000u      0.000s      0.000w     17 calls
| JK: USO2AO                        :      0.000u      0.000s      0.000w     17 calls
| JK: JK                            :      0.000u      0.000s      0.001w     17 calls
| | DFH: compute_JK()               :      0.000u      0.000s      0.001w     17 calls
| | | DFH: Grabbing AOs             :      0.000u      0.000s      0.000w     17 calls
| | | DFH: compute_J                :      0.000u      0.000s      0.000w     17 calls
| | | DFH: compute_K                :      0.000u      0.000s      0.000w     17 calls
| JK: AO2USO                        :      0.000u      0.000s      0.000w     17 calls
HF: Form F                          :      0.000u      0.000s      0.000w     17 calls
HF: Form D                          :      0.000u      0.000s      0.000w     17 calls
HF: DIIS                            :      0.000u      0.000s      0.008w     15 calls
| DIISManager::add_entry            :      0.000u      0.000s      0.001w     15 calls
| DIISManager::extrapolate          :      0.000u      0.000s      0.001w     15 calls
| | bMatrix setup                   :      0.000u      0.000s      0.000w     15 calls
| | bMatrix pseudoinverse           :      0.000u      0.000s      0.000w     15 calls
| | New vector                      :      0.000u      0.000s      0.000w     15 calls
HF: Form C                          :      0.000u      0.000s      0.001w     15 calls

**************************************************************************************

Host: penguin

Timers On : Thu Jan  9 19:42:37 2020
Timers Off: Thu Jan  9 19:42:46 2020

Wall Time:        9.39 seconds

                                                       Time (seconds)
Module                                       User      System        Wall        Calls
DFH: sparsity prep                  :      0.067u      0.000s      0.031w      2 calls
DFH: initialize()                   :      0.183u      0.000s      0.112w      2 calls
DFH: AO Construction                :      0.000u      0.000s      0.002w      2 calls
DFH: AO-Met. Contraction            :      0.000u      0.000s      0.000w      2 calls
HF: Form core H                     :      0.000u      0.000s      0.001w      2 calls
HF: Form S/X                        :      0.000u      0.000s      0.000w      2 calls
HF: Guess                           :      0.583u      0.000s      0.348w      2 calls
SAD Guess                           :      0.550u      0.000s      0.324w      2 calls
HF: Form G                          :      0.000u      0.000s      0.004w     17 calls
JK: D                               :      0.000u      0.000s      0.000w     17 calls
JK: USO2AO                          :      0.000u      0.000s      0.000w     17 calls
JK: JK                              :      0.000u      0.000s      0.003w     17 calls
DFH: compute_JK()                   :      0.000u      0.000s      0.002w     17 calls
DFH: Grabbing AOs                   :      0.000u      0.000s      0.000w     17 calls
DFH: compute_J                      :      0.000u      0.000s      0.000w     17 calls
DFH: compute_K                      :      0.000u      0.000s      0.000w     17 calls
JK: AO2USO                          :      0.000u      0.000s      0.000w     17 calls
HF: Form F                          :      0.000u      0.000s      0.000w     17 calls
HF: Form D                          :      0.000u      0.000s      0.000w     17 calls
HF: DIIS                            :      0.017u      0.000s      0.010w     15 calls
DIISManager::add_entry              :      0.000u      0.000s      0.001w     15 calls
DIISManager::extrapolate            :      0.000u      0.000s      0.001w     15 calls
bMatrix setup                       :      0.000u      0.000s      0.000w     15 calls
bMatrix pseudoinverse               :      0.000u      0.000s      0.001w     15 calls
New vector                          :      0.000u      0.000s      0.000w     15 calls
HF: Form C                          :      0.000u      0.000s      0.001w     15 calls

--------------------------------------------------------------------------------------
DFH: sparsity prep                  :      0.067u      0.000s      0.031w      2 calls
DFH: initialize()                   :      0.183u      0.000s      0.112w      2 calls
| DFH: AO Construction              :      0.000u      0.000s      0.002w      2 calls
| DFH: AO-Met. Contraction          :      0.000u      0.000s      0.000w      2 calls
HF: Form core H                     :      0.000u      0.000s      0.001w      2 calls
HF: Form S/X                        :      0.000u      0.000s      0.000w      2 calls
HF: Guess                           :      0.583u      0.000s      0.348w      2 calls
| SAD Guess                         :      0.550u      0.000s      0.324w      2 calls
HF: Form G                          :      0.000u      0.000s      0.004w     17 calls
| JK: D                             :      0.000u      0.000s      0.000w     17 calls
| JK: USO2AO                        :      0.000u      0.000s      0.000w     17 calls
| JK: JK                            :      0.000u      0.000s      0.003w     17 calls
| | DFH: compute_JK()               :      0.000u      0.000s      0.002w     17 calls
| | | DFH: Grabbing AOs             :      0.000u      0.000s      0.000w     17 calls
| | | DFH: compute_J                :      0.000u      0.000s      0.000w     17 calls
| | | DFH: compute_K                :      0.000u      0.000s      0.000w     17 calls
| JK: AO2USO                        :      0.000u      0.000s      0.000w     17 calls
HF: Form F                          :      0.000u      0.000s      0.000w     17 calls
HF: Form D                          :      0.000u      0.000s      0.000w     17 calls
HF: DIIS                            :      0.017u      0.000s      0.010w     15 calls
| DIISManager::add_entry            :      0.000u      0.000s      0.001w     15 calls
| DIISManager::extrapolate          :      0.000u      0.000s      0.001w     15 calls
| | bMatrix setup                   :      0.000u      0.000s      0.000w     15 calls
| | bMatrix pseudoinverse           :      0.000u      0.000s      0.001w     15 calls
| | New vector                      :      0.000u      0.000s      0.000w     15 calls
HF: Form C                          :      0.000u      0.000s      0.001w     15 calls

**************************************************************************************

Host: penguin

Timers On : Thu Jan  9 19:43:16 2020
Timers Off: Thu Jan  9 19:44:21 2020

Wall Time:       65.79 seconds

                                                       Time (seconds)
Module                                       User      System        Wall        Calls
Total PK formation time             :      0.400u      0.000s      0.249w      8 calls
HF: Form core H                     :      0.000u      0.017s      0.012w      8 calls
HF: Form S/X                        :      0.000u      0.000s      0.001w      8 calls
HF: Guess                           :      2.100u      0.050s      1.262w      8 calls
SAD Guess                           :      1.950u      0.033s      1.169w      8 calls
HF: Form G                          :      0.000u      0.000s      0.004w     79 calls
JK: D                               :      0.000u      0.000s      0.001w     79 calls
JK: USO2AO                          :      0.000u      0.000s      0.000w     79 calls
JK: JK                              :      0.000u      0.000s      0.001w     79 calls
PK computes JK                      :      0.000u      0.000s      0.001w     79 calls
JK: AO2USO                          :      0.000u      0.000s      0.000w     79 calls
HF: Form F                          :      0.000u      0.000s      0.001w     79 calls
HF: Form D                          :      0.000u      0.000s      0.001w     79 calls
HF: DIIS                            :      0.133u      0.000s      0.050w     71 calls
DIISManager::add_entry              :      0.000u      0.000s      0.006w     71 calls
DIISManager::extrapolate            :      0.050u      0.000s      0.013w     71 calls
bMatrix setup                       :      0.017u      0.000s      0.003w     71 calls
bMatrix pseudoinverse               :      0.017u      0.000s      0.007w     71 calls
New vector                          :      0.017u      0.000s      0.002w     71 calls
HF: Form C                          :      0.000u      0.000s      0.003w     71 calls

--------------------------------------------------------------------------------------
Total PK formation time             :      0.400u      0.000s      0.249w      8 calls
HF: Form core H                     :      0.000u      0.017s      0.012w      8 calls
HF: Form S/X                        :      0.000u      0.000s      0.001w      8 calls
HF: Guess                           :      2.100u      0.050s      1.262w      8 calls
| SAD Guess                         :      1.950u      0.033s      1.169w      8 calls
HF: Form G                          :      0.000u      0.000s      0.004w     79 calls
| JK: D                             :      0.000u      0.000s      0.001w     79 calls
| JK: USO2AO                        :      0.000u      0.000s      0.000w     79 calls
| JK: JK                            :      0.000u      0.000s      0.001w     79 calls
| | PK computes JK                  :      0.000u      0.000s      0.001w     79 calls
| JK: AO2USO                        :      0.000u      0.000s      0.000w     79 calls
HF: Form F                          :      0.000u      0.000s      0.001w     79 calls
HF: Form D                          :      0.000u      0.000s      0.001w     79 calls
HF: DIIS                            :      0.133u      0.000s      0.050w     71 calls
| DIISManager::add_entry            :      0.000u      0.000s      0.006w     71 calls
| DIISManager::extrapolate          :      0.050u      0.000s      0.013w     71 calls
| | bMatrix setup                   :      0.017u      0.000s      0.003w     71 calls
| | bMatrix pseudoinverse           :      0.017u      0.000s      0.007w     71 calls
| | New vector                      :      0.017u      0.000s      0.002w     71 calls
HF: Form C                          :      0.000u      0.000s      0.003w     71 calls

**************************************************************************************

Host: penguin

Timers On : Thu Jan  9 20:01:13 2020
Timers Off: Thu Jan  9 20:01:36 2020

Wall Time:       22.76 seconds

                                                       Time (seconds)
Module                                       User      System        Wall        Calls
Total PK formation time             :      0.050u      0.000s      0.028w      1 calls
HF: Form core H                     :      0.000u      0.000s      0.001w      1 calls
HF: Form S/X                        :      0.000u      0.000s      0.000w      1 calls
HF: Guess                           :      0.133u      0.000s      0.086w      1 calls
SAD Guess                           :      0.117u      0.000s      0.075w      1 calls
HF: Form G                          :      0.000u      0.000s      0.000w      3 calls
JK: D                               :      0.000u      0.000s      0.000w      3 calls
JK: USO2AO                          :      0.000u      0.000s      0.000w      3 calls
JK: JK                              :      0.000u      0.000s      0.000w      3 calls
PK computes JK                      :      0.000u      0.000s      0.000w      3 calls
JK: AO2USO                          :      0.000u      0.000s      0.000w      3 calls
HF: Form F                          :      0.000u      0.000s      0.000w      3 calls
HF: Form D                          :      0.000u      0.000s      0.000w      3 calls
HF: DIIS                            :      0.000u      0.000s      0.001w      2 calls
DIISManager::add_entry              :      0.000u      0.000s      0.000w      2 calls
DIISManager::extrapolate            :      0.000u      0.000s      0.000w      2 calls
bMatrix setup                       :      0.000u      0.000s      0.000w      2 calls
bMatrix pseudoinverse               :      0.000u      0.000s      0.000w      2 calls
New vector                          :      0.000u      0.000s      0.000w      2 calls
HF: Form C                          :      0.000u      0.000s      0.000w      2 calls

--------------------------------------------------------------------------------------
Total PK formation time             :      0.050u      0.000s      0.028w      1 calls
HF: Form core H                     :      0.000u      0.000s      0.001w      1 calls
HF: Form S/X                        :      0.000u      0.000s      0.000w      1 calls
HF: Guess                           :      0.133u      0.000s      0.086w      1 calls
| SAD Guess                         :      0.117u      0.000s      0.075w      1 calls
HF: Form G                          :      0.000u      0.000s      0.000w      3 calls
| JK: D                             :      0.000u      0.000s      0.000w      3 calls
| JK: USO2AO                        :      0.000u      0.000s      0.000w      3 calls
| JK: JK                            :      0.000u      0.000s      0.000w      3 calls
| | PK computes JK                  :      0.000u      0.000s      0.000w      3 calls
| JK: AO2USO                        :      0.000u      0.000s      0.000w      3 calls
HF: Form F                          :      0.000u      0.000s      0.000w      3 calls
HF: Form D                          :      0.000u      0.000s      0.000w      3 calls
HF: DIIS                            :      0.000u      0.000s      0.001w      2 calls
| DIISManager::add_entry            :      0.000u      0.000s      0.000w      2 calls
| DIISManager::extrapolate          :      0.000u      0.000s      0.000w      2 calls
| | bMatrix setup                   :      0.000u      0.000s      0.000w      2 calls
| | bMatrix pseudoinverse           :      0.000u      0.000s      0.000w      2 calls
| | New vector                      :      0.000u      0.000s      0.000w      2 calls
HF: Form C                          :      0.000u      0.000s      0.000w      2 calls

**************************************************************************************

Host: penguin

Timers On : Thu Jan  9 20:02:42 2020
Timers Off: Thu Jan  9 20:02:56 2020

Wall Time:       13.64 seconds

                                                       Time (seconds)
Module                                       User      System        Wall        Calls
Total PK formation time             :      0.050u      0.000s      0.033w      1 calls
HF: Form core H                     :      0.000u      0.000s      0.001w      1 calls
HF: Form S/X                        :      0.000u      0.000s      0.000w      1 calls
HF: Guess                           :      0.300u      0.000s      0.182w      1 calls
SAD Guess                           :      0.283u      0.000s      0.171w      1 calls
HF: Form G                          :      0.000u      0.000s      0.001w     12 calls
JK: D                               :      0.000u      0.000s      0.000w     12 calls
JK: USO2AO                          :      0.000u      0.000s      0.000w     12 calls
JK: JK                              :      0.000u      0.000s      0.000w     12 calls
PK computes JK                      :      0.000u      0.000s      0.000w     12 calls
JK: AO2USO                          :      0.000u      0.000s      0.000w     12 calls
HF: Form F                          :      0.000u      0.000s      0.000w     12 calls
HF: Form D                          :      0.000u      0.000s      0.000w     12 calls
HF: DIIS                            :      0.033u      0.000s      0.006w     11 calls
DIISManager::add_entry              :      0.000u      0.000s      0.001w     11 calls
DIISManager::extrapolate            :      0.000u      0.000s      0.001w     11 calls
bMatrix setup                       :      0.000u      0.000s      0.000w     11 calls
bMatrix pseudoinverse               :      0.000u      0.000s      0.000w     11 calls
New vector                          :      0.000u      0.000s      0.000w     11 calls
HF: Form C                          :      0.000u      0.000s      0.000w     11 calls

--------------------------------------------------------------------------------------
Total PK formation time             :      0.050u      0.000s      0.033w      1 calls
HF: Form core H                     :      0.000u      0.000s      0.001w      1 calls
HF: Form S/X                        :      0.000u      0.000s      0.000w      1 calls
HF: Guess                           :      0.300u      0.000s      0.182w      1 calls
| SAD Guess                         :      0.283u      0.000s      0.171w      1 calls
HF: Form G                          :      0.000u      0.000s      0.001w     12 calls
| JK: D                             :      0.000u      0.000s      0.000w     12 calls
| JK: USO2AO                        :      0.000u      0.000s      0.000w     12 calls
| JK: JK                            :      0.000u      0.000s      0.000w     12 calls
| | PK computes JK                  :      0.000u      0.000s      0.000w     12 calls
| JK: AO2USO                        :      0.000u      0.000s      0.000w     12 calls
HF: Form F                          :      0.000u      0.000s      0.000w     12 calls
HF: Form D                          :      0.000u      0.000s      0.000w     12 calls
HF: DIIS                            :      0.033u      0.000s      0.006w     11 calls
| DIISManager::add_entry            :      0.000u      0.000s      0.001w     11 calls
| DIISManager::extrapolate          :      0.000u      0.000s      0.001w     11 calls
| | bMatrix setup                   :      0.000u      0.000s      0.000w     11 calls
| | bMatrix pseudoinverse           :      0.000u      0.000s      0.000w     11 calls
| | New vector                      :      0.000u      0.000s      0.000w     11 calls
HF: Form C                          :      0.000u      0.000s      0.000w     11 calls

**************************************************************************************

Host: penguin

Timers On : Thu Jan  9 20:03:37 2020
Timers Off: Thu Jan  9 20:03:50 2020

Wall Time:       13.42 seconds

                                                       Time (seconds)
Module                                       User      System        Wall        Calls
Total PK formation time             :      0.050u      0.000s      0.031w      1 calls
HF: Form core H                     :      0.000u      0.000s      0.001w      1 calls
HF: Form S/X                        :      0.000u      0.000s      0.000w      1 calls
HF: Guess                           :      0.300u      0.000s      0.176w      1 calls
SAD Guess                           :      0.283u      0.000s      0.164w      1 calls
HF: Form G                          :      0.000u      0.000s      0.001w     12 calls
JK: D                               :      0.000u      0.000s      0.000w     12 calls
JK: USO2AO                          :      0.000u      0.000s      0.000w     12 calls
JK: JK                              :      0.000u      0.000s      0.000w     12 calls
PK computes JK                      :      0.000u      0.000s      0.000w     12 calls
JK: AO2USO                          :      0.000u      0.000s      0.000w     12 calls
HF: Form F                          :      0.000u      0.000s      0.000w     12 calls
HF: Form D                          :      0.000u      0.000s      0.000w     12 calls
HF: DIIS                            :      0.017u      0.000s      0.007w     11 calls
DIISManager::add_entry              :      0.000u      0.000s      0.001w     11 calls
DIISManager::extrapolate            :      0.000u      0.000s      0.001w     11 calls
bMatrix setup                       :      0.000u      0.000s      0.000w     11 calls
bMatrix pseudoinverse               :      0.000u      0.000s      0.000w     11 calls
New vector                          :      0.000u      0.000s      0.000w     11 calls
HF: Form C                          :      0.017u      0.000s      0.000w     11 calls

--------------------------------------------------------------------------------------
Total PK formation time             :      0.050u      0.000s      0.031w      1 calls
HF: Form core H                     :      0.000u      0.000s      0.001w      1 calls
HF: Form S/X                        :      0.000u      0.000s      0.000w      1 calls
HF: Guess                           :      0.300u      0.000s      0.176w      1 calls
| SAD Guess                         :      0.283u      0.000s      0.164w      1 calls
HF: Form G                          :      0.000u      0.000s      0.001w     12 calls
| JK: D                             :      0.000u      0.000s      0.000w     12 calls
| JK: USO2AO                        :      0.000u      0.000s      0.000w     12 calls
| JK: JK                            :      0.000u      0.000s      0.000w     12 calls
| | PK computes JK                  :      0.000u      0.000s      0.000w     12 calls
| JK: AO2USO                        :      0.000u      0.000s      0.000w     12 calls
HF: Form F                          :      0.000u      0.000s      0.000w     12 calls
HF: Form D                          :      0.000u      0.000s      0.000w     12 calls
HF: DIIS                            :      0.017u      0.000s      0.007w     11 calls
| DIISManager::add_entry            :      0.000u      0.000s      0.001w     11 calls
| DIISManager::extrapolate          :      0.000u      0.000s      0.001w     11 calls
| | bMatrix setup                   :      0.000u      0.000s      0.000w     11 calls
| | bMatrix pseudoinverse           :      0.000u      0.000s      0.000w     11 calls
| | New vector                      :      0.000u      0.000s      0.000w     11 calls
HF: Form C                          :      0.017u      0.000s      0.000w     11 calls

**************************************************************************************

Host: penguin

Timers On : Thu Jan  9 20:04:32 2020
Timers Off: Thu Jan  9 20:04:45 2020

Wall Time:       13.15 seconds

                                                       Time (seconds)
Module                                       User      System        Wall        Calls
Total PK formation time             :      0.067u      0.000s      0.034w      1 calls
HF: Form core H                     :      0.000u      0.000s      0.001w      1 calls
HF: Form S/X                        :      0.000u      0.000s      0.000w      1 calls
HF: Guess                           :      0.283u      0.000s      0.175w      1 calls
SAD Guess                           :      0.267u      0.000s      0.162w      1 calls
HF: Form G                          :      0.000u      0.000s      0.001w     12 calls
JK: D                               :      0.000u      0.000s      0.000w     12 calls
JK: USO2AO                          :      0.000u      0.000s      0.000w     12 calls
JK: JK                              :      0.000u      0.000s      0.000w     12 calls
PK computes JK                      :      0.000u      0.000s      0.000w     12 calls
JK: AO2USO                          :      0.000u      0.000s      0.000w     12 calls
HF: Form F                          :      0.000u      0.000s      0.000w     12 calls
HF: Form D                          :      0.000u      0.000s      0.000w     12 calls
HF: DIIS                            :      0.000u      0.000s      0.007w     11 calls
DIISManager::add_entry              :      0.000u      0.000s      0.001w     11 calls
DIISManager::extrapolate            :      0.000u      0.000s      0.001w     11 calls
bMatrix setup                       :      0.000u      0.000s      0.000w     11 calls
bMatrix pseudoinverse               :      0.000u      0.000s      0.000w     11 calls
New vector                          :      0.000u      0.000s      0.000w     11 calls
HF: Form C                          :      0.000u      0.000s      0.000w     11 calls

--------------------------------------------------------------------------------------
Total PK formation time             :      0.067u      0.000s      0.034w      1 calls
HF: Form core H                     :      0.000u      0.000s      0.001w      1 calls
HF: Form S/X                        :      0.000u      0.000s      0.000w      1 calls
HF: Guess                           :      0.283u      0.000s      0.175w      1 calls
| SAD Guess                         :      0.267u      0.000s      0.162w      1 calls
HF: Form G                          :      0.000u      0.000s      0.001w     12 calls
| JK: D                             :      0.000u      0.000s      0.000w     12 calls
| JK: USO2AO                        :      0.000u      0.000s      0.000w     12 calls
| JK: JK                            :      0.000u      0.000s      0.000w     12 calls
| | PK computes JK                  :      0.000u      0.000s      0.000w     12 calls
| JK: AO2USO                        :      0.000u      0.000s      0.000w     12 calls
HF: Form F                          :      0.000u      0.000s      0.000w     12 calls
HF: Form D                          :      0.000u      0.000s      0.000w     12 calls
HF: DIIS                            :      0.000u      0.000s      0.007w     11 calls
| DIISManager::add_entry            :      0.000u      0.000s      0.001w     11 calls
| DIISManager::extrapolate          :      0.000u      0.000s      0.001w     11 calls
| | bMatrix setup                   :      0.000u      0.000s      0.000w     11 calls
| | bMatrix pseudoinverse           :      0.000u      0.000s      0.000w     11 calls
| | New vector                      :      0.000u      0.000s      0.000w     11 calls
HF: Form C                          :      0.000u      0.000s      0.000w     11 calls

**************************************************************************************

Host: penguin

Timers On : Thu Jan  9 20:05:26 2020
Timers Off: Thu Jan  9 20:05:39 2020

Wall Time:       13.23 seconds

                                                       Time (seconds)
Module                                       User      System        Wall        Calls
Total PK formation time             :      0.067u      0.000s      0.036w      1 calls
HF: Form core H                     :      0.000u      0.000s      0.001w      1 calls
HF: Form S/X                        :      0.000u      0.000s      0.000w      1 calls
HF: Guess                           :      0.317u      0.000s      0.192w      1 calls
SAD Guess                           :      0.300u      0.000s      0.179w      1 calls
HF: Form G                          :      0.000u      0.000s      0.001w     12 calls
JK: D                               :      0.000u      0.000s      0.000w     12 calls
JK: USO2AO                          :      0.000u      0.000s      0.000w     12 calls
JK: JK                              :      0.000u      0.000s      0.000w     12 calls
PK computes JK                      :      0.000u      0.000s      0.000w     12 calls
JK: AO2USO                          :      0.000u      0.000s      0.000w     12 calls
HF: Form F                          :      0.000u      0.000s      0.000w     12 calls
HF: Form D                          :      0.000u      0.000s      0.000w     12 calls
HF: DIIS                            :      0.000u      0.000s      0.006w     11 calls
DIISManager::add_entry              :      0.000u      0.000s      0.001w     11 calls
DIISManager::extrapolate            :      0.000u      0.000s      0.001w     11 calls
bMatrix setup                       :      0.000u      0.000s      0.001w     11 calls
bMatrix pseudoinverse               :      0.000u      0.000s      0.000w     11 calls
New vector                          :      0.000u      0.000s      0.000w     11 calls
HF: Form C                          :      0.000u      0.000s      0.000w     11 calls

--------------------------------------------------------------------------------------
Total PK formation time             :      0.067u      0.000s      0.036w      1 calls
HF: Form core H                     :      0.000u      0.000s      0.001w      1 calls
HF: Form S/X                        :      0.000u      0.000s      0.000w      1 calls
HF: Guess                           :      0.317u      0.000s      0.192w      1 calls
| SAD Guess                         :      0.300u      0.000s      0.179w      1 calls
HF: Form G                          :      0.000u      0.000s      0.001w     12 calls
| JK: D                             :      0.000u      0.000s      0.000w     12 calls
| JK: USO2AO                        :      0.000u      0.000s      0.000w     12 calls
| JK: JK                            :      0.000u      0.000s      0.000w     12 calls
| | PK computes JK                  :      0.000u      0.000s      0.000w     12 calls
| JK: AO2USO                        :      0.000u      0.000s      0.000w     12 calls
HF: Form F                          :      0.000u      0.000s      0.000w     12 calls
HF: Form D                          :      0.000u      0.000s      0.000w     12 calls
HF: DIIS                            :      0.000u      0.000s      0.006w     11 calls
| DIISManager::add_entry            :      0.000u      0.000s      0.001w     11 calls
| DIISManager::extrapolate          :      0.000u      0.000s      0.001w     11 calls
| | bMatrix setup                   :      0.000u      0.000s      0.001w     11 calls
| | bMatrix pseudoinverse           :      0.000u      0.000s      0.000w     11 calls
| | New vector                      :      0.000u      0.000s      0.000w     11 calls
HF: Form C                          :      0.000u      0.000s      0.000w     11 calls

**************************************************************************************

Host: penguin

Timers On : Thu Jan  9 20:06:44 2020
Timers Off: Thu Jan  9 20:06:58 2020

Wall Time:       13.14 seconds

                                                       Time (seconds)
Module                                       User      System        Wall        Calls
Total PK formation time             :      0.067u      0.000s      0.034w      1 calls
HF: Form core H                     :      0.000u      0.000s      0.001w      1 calls
HF: Form S/X                        :      0.000u      0.000s      0.000w      1 calls
HF: Guess                           :      0.283u      0.000s      0.177w      1 calls
SAD Guess                           :      0.267u      0.000s      0.160w      1 calls
HF: Form G                          :      0.000u      0.000s      0.001w     12 calls
JK: D                               :      0.000u      0.000s      0.000w     12 calls
JK: USO2AO                          :      0.000u      0.000s      0.000w     12 calls
JK: JK                              :      0.000u      0.000s      0.000w     12 calls
PK computes JK                      :      0.000u      0.000s      0.000w     12 calls
JK: AO2USO                          :      0.000u      0.000s      0.000w     12 calls
HF: Form F                          :      0.000u      0.000s      0.000w     12 calls
HF: Form D                          :      0.000u      0.000s      0.000w     12 calls
HF: DIIS                            :      0.000u      0.000s      0.006w     11 calls
DIISManager::add_entry              :      0.000u      0.000s      0.001w     11 calls
DIISManager::extrapolate            :      0.000u      0.000s      0.001w     11 calls
bMatrix setup                       :      0.000u      0.000s      0.000w     11 calls
bMatrix pseudoinverse               :      0.000u      0.000s      0.000w     11 calls
New vector                          :      0.000u      0.000s      0.000w     11 calls
HF: Form C                          :      0.000u      0.000s      0.000w     11 calls

--------------------------------------------------------------------------------------
Total PK formation time             :      0.067u      0.000s      0.034w      1 calls
HF: Form core H                     :      0.000u      0.000s      0.001w      1 calls
HF: Form S/X                        :      0.000u      0.000s      0.000w      1 calls
HF: Guess                           :      0.283u      0.000s      0.177w      1 calls
| SAD Guess                         :      0.267u      0.000s      0.160w      1 calls
HF: Form G                          :      0.000u      0.000s      0.001w     12 calls
| JK: D                             :      0.000u      0.000s      0.000w     12 calls
| JK: USO2AO                        :      0.000u      0.000s      0.000w     12 calls
| JK: JK                            :      0.000u      0.000s      0.000w     12 calls
| | PK computes JK                  :      0.000u      0.000s      0.000w     12 calls
| JK: AO2USO                        :      0.000u      0.000s      0.000w     12 calls
HF: Form F                          :      0.000u      0.000s      0.000w     12 calls
HF: Form D                          :      0.000u      0.000s      0.000w     12 calls
HF: DIIS                            :      0.000u      0.000s      0.006w     11 calls
| DIISManager::add_entry            :      0.000u      0.000s      0.001w     11 calls
| DIISManager::extrapolate          :      0.000u      0.000s      0.001w     11 calls
| | bMatrix setup                   :      0.000u      0.000s      0.000w     11 calls
| | bMatrix pseudoinverse           :      0.000u      0.000s      0.000w     11 calls
| | New vector                      :      0.000u      0.000s      0.000w     11 calls
HF: Form C                          :      0.000u      0.000s      0.000w     11 calls

**************************************************************************************

Host: penguin

Timers On : Thu Jan  9 20:07:20 2020
Timers Off: Thu Jan  9 20:07:34 2020

Wall Time:       13.37 seconds

                                                       Time (seconds)
Module                                       User      System        Wall        Calls
Total PK formation time             :      0.067u      0.000s      0.031w      1 calls
HF: Form core H                     :      0.000u      0.000s      0.001w      1 calls
HF: Form S/X                        :      0.000u      0.000s      0.000w      1 calls
HF: Guess                           :      0.283u      0.000s      0.171w      1 calls
SAD Guess                           :      0.267u      0.000s      0.159w      1 calls
HF: Form G                          :      0.000u      0.000s      0.001w     12 calls
JK: D                               :      0.000u      0.000s      0.000w     12 calls
JK: USO2AO                          :      0.000u      0.000s      0.000w     12 calls
JK: JK                              :      0.000u      0.000s      0.000w     12 calls
PK computes JK                      :      0.000u      0.000s      0.000w     12 calls
JK: AO2USO                          :      0.000u      0.000s      0.000w     12 calls
HF: Form F                          :      0.000u      0.000s      0.000w     12 calls
HF: Form D                          :      0.000u      0.000s      0.000w     12 calls
HF: DIIS                            :      0.017u      0.000s      0.006w     11 calls
DIISManager::add_entry              :      0.000u      0.000s      0.001w     11 calls
DIISManager::extrapolate            :      0.000u      0.000s      0.001w     11 calls
bMatrix setup                       :      0.000u      0.000s      0.000w     11 calls
bMatrix pseudoinverse               :      0.000u      0.000s      0.000w     11 calls
New vector                          :      0.000u      0.000s      0.000w     11 calls
HF: Form C                          :      0.000u      0.000s      0.000w     11 calls

--------------------------------------------------------------------------------------
Total PK formation time             :      0.067u      0.000s      0.031w      1 calls
HF: Form core H                     :      0.000u      0.000s      0.001w      1 calls
HF: Form S/X                        :      0.000u      0.000s      0.000w      1 calls
HF: Guess                           :      0.283u      0.000s      0.171w      1 calls
| SAD Guess                         :      0.267u      0.000s      0.159w      1 calls
HF: Form G                          :      0.000u      0.000s      0.001w     12 calls
| JK: D                             :      0.000u      0.000s      0.000w     12 calls
| JK: USO2AO                        :      0.000u      0.000s      0.000w     12 calls
| JK: JK                            :      0.000u      0.000s      0.000w     12 calls
| | PK computes JK                  :      0.000u      0.000s      0.000w     12 calls
| JK: AO2USO                        :      0.000u      0.000s      0.000w     12 calls
HF: Form F                          :      0.000u      0.000s      0.000w     12 calls
HF: Form D                          :      0.000u      0.000s      0.000w     12 calls
HF: DIIS                            :      0.017u      0.000s      0.006w     11 calls
| DIISManager::add_entry            :      0.000u      0.000s      0.001w     11 calls
| DIISManager::extrapolate          :      0.000u      0.000s      0.001w     11 calls
| | bMatrix setup                   :      0.000u      0.000s      0.000w     11 calls
| | bMatrix pseudoinverse           :      0.000u      0.000s      0.000w     11 calls
| | New vector                      :      0.000u      0.000s      0.000w     11 calls
HF: Form C                          :      0.000u      0.000s      0.000w     11 calls

**************************************************************************************

Host: penguin

Timers On : Thu Jan  9 20:08:04 2020
Timers Off: Thu Jan  9 20:08:17 2020

Wall Time:       13.25 seconds

                                                       Time (seconds)
Module                                       User      System        Wall        Calls
Total PK formation time             :      0.050u      0.000s      0.030w      1 calls
HF: Form core H                     :      0.000u      0.000s      0.001w      1 calls
HF: Form S/X                        :      0.000u      0.000s      0.000w      1 calls
HF: Guess                           :      0.300u      0.000s      0.180w      1 calls
SAD Guess                           :      0.283u      0.000s      0.168w      1 calls
HF: Form G                          :      0.000u      0.000s      0.001w     12 calls
JK: D                               :      0.000u      0.000s      0.000w     12 calls
JK: USO2AO                          :      0.000u      0.000s      0.000w     12 calls
JK: JK                              :      0.000u      0.000s      0.000w     12 calls
PK computes JK                      :      0.000u      0.000s      0.000w     12 calls
JK: AO2USO                          :      0.000u      0.000s      0.000w     12 calls
HF: Form F                          :      0.000u      0.000s      0.000w     12 calls
HF: Form D                          :      0.000u      0.000s      0.000w     12 calls
HF: DIIS                            :      0.000u      0.000s      0.006w     11 calls
DIISManager::add_entry              :      0.000u      0.000s      0.001w     11 calls
DIISManager::extrapolate            :      0.000u      0.000s      0.001w     11 calls
bMatrix setup                       :      0.000u      0.000s      0.000w     11 calls
bMatrix pseudoinverse               :      0.000u      0.000s      0.000w     11 calls
New vector                          :      0.000u      0.000s      0.000w     11 calls
HF: Form C                          :      0.000u      0.000s      0.000w     11 calls

--------------------------------------------------------------------------------------
Total PK formation time             :      0.050u      0.000s      0.030w      1 calls
HF: Form core H                     :      0.000u      0.000s      0.001w      1 calls
HF: Form S/X                        :      0.000u      0.000s      0.000w      1 calls
HF: Guess                           :      0.300u      0.000s      0.180w      1 calls
| SAD Guess                         :      0.283u      0.000s      0.168w      1 calls
HF: Form G                          :      0.000u      0.000s      0.001w     12 calls
| JK: D                             :      0.000u      0.000s      0.000w     12 calls
| JK: USO2AO                        :      0.000u      0.000s      0.000w     12 calls
| JK: JK                            :      0.000u      0.000s      0.000w     12 calls
| | PK computes JK                  :      0.000u      0.000s      0.000w     12 calls
| JK: AO2USO                        :      0.000u      0.000s      0.000w     12 calls
HF: Form F                          :      0.000u      0.000s      0.000w     12 calls
HF: Form D                          :      0.000u      0.000s      0.000w     12 calls
HF: DIIS                            :      0.000u      0.000s      0.006w     11 calls
| DIISManager::add_entry            :      0.000u      0.000s      0.001w     11 calls
| DIISManager::extrapolate          :      0.000u      0.000s      0.001w     11 calls
| | bMatrix setup                   :      0.000u      0.000s      0.000w     11 calls
| | bMatrix pseudoinverse           :      0.000u      0.000s      0.000w     11 calls
| | New vector                      :      0.000u      0.000s      0.000w     11 calls
HF: Form C                          :      0.000u      0.000s      0.000w     11 calls

**************************************************************************************
