
Host: penguin

Timers On : Thu Jan  2 09:26:35 2020
Timers Off: Thu Jan  2 09:27:05 2020

Wall Time:       30.28 seconds

                                                       Time (seconds)
Module                                       User      System        Wall        Calls
Total PK formation time             :      0.133u      0.000s      0.066w      2 calls
HF: Form core H                     :      0.000u      0.000s      0.002w      2 calls
HF: Form S/X                        :      0.000u      0.000s      0.000w      2 calls
HF: Guess                           :      0.500u      0.000s      0.312w      2 calls
SAD Guess                           :      0.467u      0.000s      0.287w      2 calls
HF: Form G                          :      0.000u      0.000s      0.001w     15 calls
JK: D                               :      0.000u      0.000s      0.000w     15 calls
JK: USO2AO                          :      0.000u      0.000s      0.000w     15 calls
JK: JK                              :      0.000u      0.000s      0.000w     15 calls
PK computes JK                      :      0.000u      0.000s      0.000w     15 calls
JK: AO2USO                          :      0.000u      0.000s      0.000w     15 calls
HF: Form F                          :      0.000u      0.000s      0.000w     15 calls
HF: Form D                          :      0.000u      0.000s      0.000w     15 calls
HF: DIIS                            :      0.033u      0.000s      0.009w     13 calls
DIISManager::add_entry              :      0.000u      0.000s      0.001w     13 calls
DIISManager::extrapolate            :      0.033u      0.000s      0.001w     13 calls
bMatrix setup                       :      0.000u      0.000s      0.000w     13 calls
bMatrix pseudoinverse               :      0.017u      0.000s      0.001w     13 calls
New vector                          :      0.017u      0.000s      0.000w     13 calls
HF: Form C                          :      0.000u      0.000s      0.000w     13 calls

--------------------------------------------------------------------------------------
Total PK formation time             :      0.133u      0.000s      0.066w      2 calls
HF: Form core H                     :      0.000u      0.000s      0.002w      2 calls
HF: Form S/X                        :      0.000u      0.000s      0.000w      2 calls
HF: Guess                           :      0.500u      0.000s      0.312w      2 calls
| SAD Guess                         :      0.467u      0.000s      0.287w      2 calls
HF: Form G                          :      0.000u      0.000s      0.001w     15 calls
| JK: D                             :      0.000u      0.000s      0.000w     15 calls
| JK: USO2AO                        :      0.000u      0.000s      0.000w     15 calls
| JK: JK                            :      0.000u      0.000s      0.000w     15 calls
| | PK computes JK                  :      0.000u      0.000s      0.000w     15 calls
| JK: AO2USO                        :      0.000u      0.000s      0.000w     15 calls
HF: Form F                          :      0.000u      0.000s      0.000w     15 calls
HF: Form D                          :      0.000u      0.000s      0.000w     15 calls
HF: DIIS                            :      0.033u      0.000s      0.009w     13 calls
| DIISManager::add_entry            :      0.000u      0.000s      0.001w     13 calls
| DIISManager::extrapolate          :      0.033u      0.000s      0.001w     13 calls
| | bMatrix setup                   :      0.000u      0.000s      0.000w     13 calls
| | bMatrix pseudoinverse           :      0.017u      0.000s      0.001w     13 calls
| | New vector                      :      0.017u      0.000s      0.000w     13 calls
HF: Form C                          :      0.000u      0.000s      0.000w     13 calls

**************************************************************************************

Host: penguin

Timers On : Thu Jan  2 16:08:16 2020
Timers Off: Thu Jan  2 16:08:58 2020

Wall Time:       42.17 seconds

                                                       Time (seconds)
Module                                       User      System        Wall        Calls
Total PK formation time             :      0.083u      0.000s      0.058w      2 calls
HF: Form core H                     :      0.000u      0.000s      0.001w      2 calls
HF: Form S/X                        :      0.000u      0.000s      0.000w      2 calls
HF: Guess                           :      0.433u      0.000s      0.260w      2 calls
SAD Guess                           :      0.383u      0.000s      0.237w      2 calls
HF: Form G                          :      0.000u      0.000s      0.001w     15 calls
JK: D                               :      0.000u      0.000s      0.000w     15 calls
JK: USO2AO                          :      0.000u      0.000s      0.000w     15 calls
JK: JK                              :      0.000u      0.000s      0.000w     15 calls
PK computes JK                      :      0.000u      0.000s      0.000w     15 calls
JK: AO2USO                          :      0.000u      0.000s      0.000w     15 calls
HF: Form F                          :      0.000u      0.000s      0.000w     15 calls
HF: Form D                          :      0.000u      0.000s      0.000w     15 calls
HF: DIIS                            :      0.017u      0.000s      0.007w     13 calls
DIISManager::add_entry              :      0.000u      0.000s      0.001w     13 calls
DIISManager::extrapolate            :      0.000u      0.000s      0.001w     13 calls
bMatrix setup                       :      0.000u      0.000s      0.000w     13 calls
bMatrix pseudoinverse               :      0.000u      0.000s      0.000w     13 calls
New vector                          :      0.000u      0.000s      0.000w     13 calls
HF: Form C                          :      0.000u      0.000s      0.000w     13 calls

--------------------------------------------------------------------------------------
Total PK formation time             :      0.083u      0.000s      0.058w      2 calls
HF: Form core H                     :      0.000u      0.000s      0.001w      2 calls
HF: Form S/X                        :      0.000u      0.000s      0.000w      2 calls
HF: Guess                           :      0.433u      0.000s      0.260w      2 calls
| SAD Guess                         :      0.383u      0.000s      0.237w      2 calls
HF: Form G                          :      0.000u      0.000s      0.001w     15 calls
| JK: D                             :      0.000u      0.000s      0.000w     15 calls
| JK: USO2AO                        :      0.000u      0.000s      0.000w     15 calls
| JK: JK                            :      0.000u      0.000s      0.000w     15 calls
| | PK computes JK                  :      0.000u      0.000s      0.000w     15 calls
| JK: AO2USO                        :      0.000u      0.000s      0.000w     15 calls
HF: Form F                          :      0.000u      0.000s      0.000w     15 calls
HF: Form D                          :      0.000u      0.000s      0.000w     15 calls
HF: DIIS                            :      0.017u      0.000s      0.007w     13 calls
| DIISManager::add_entry            :      0.000u      0.000s      0.001w     13 calls
| DIISManager::extrapolate          :      0.000u      0.000s      0.001w     13 calls
| | bMatrix setup                   :      0.000u      0.000s      0.000w     13 calls
| | bMatrix pseudoinverse           :      0.000u      0.000s      0.000w     13 calls
| | New vector                      :      0.000u      0.000s      0.000w     13 calls
HF: Form C                          :      0.000u      0.000s      0.000w     13 calls

**************************************************************************************

Host: penguin

Timers On : Thu Jan  2 16:12:02 2020
Timers Off: Thu Jan  2 16:12:50 2020

Wall Time:       47.78 seconds

                                                       Time (seconds)
Module                                       User      System        Wall        Calls
Total PK formation time             :      0.117u      0.000s      0.066w      2 calls
HF: Form core H                     :      0.017u      0.000s      0.006w      2 calls
HF: Form S/X                        :      0.000u      0.000s      0.000w      2 calls
HF: Guess                           :      0.517u      0.000s      0.320w      2 calls
SAD Guess                           :      0.467u      0.000s      0.290w      2 calls
HF: Form G                          :      0.000u      0.000s      0.001w     15 calls
JK: D                               :      0.000u      0.000s      0.000w     15 calls
JK: USO2AO                          :      0.000u      0.000s      0.000w     15 calls
JK: JK                              :      0.000u      0.000s      0.000w     15 calls
PK computes JK                      :      0.000u      0.000s      0.000w     15 calls
JK: AO2USO                          :      0.000u      0.000s      0.000w     15 calls
HF: Form F                          :      0.000u      0.000s      0.000w     15 calls
HF: Form D                          :      0.000u      0.000s      0.000w     15 calls
HF: DIIS                            :      0.033u      0.000s      0.010w     13 calls
DIISManager::add_entry              :      0.000u      0.000s      0.001w     13 calls
DIISManager::extrapolate            :      0.000u      0.000s      0.002w     13 calls
bMatrix setup                       :      0.000u      0.000s      0.001w     13 calls
bMatrix pseudoinverse               :      0.000u      0.000s      0.001w     13 calls
New vector                          :      0.000u      0.000s      0.000w     13 calls
HF: Form C                          :      0.000u      0.000s      0.001w     13 calls

--------------------------------------------------------------------------------------
Total PK formation time             :      0.117u      0.000s      0.066w      2 calls
HF: Form core H                     :      0.017u      0.000s      0.006w      2 calls
HF: Form S/X                        :      0.000u      0.000s      0.000w      2 calls
HF: Guess                           :      0.517u      0.000s      0.320w      2 calls
| SAD Guess                         :      0.467u      0.000s      0.290w      2 calls
HF: Form G                          :      0.000u      0.000s      0.001w     15 calls
| JK: D                             :      0.000u      0.000s      0.000w     15 calls
| JK: USO2AO                        :      0.000u      0.000s      0.000w     15 calls
| JK: JK                            :      0.000u      0.000s      0.000w     15 calls
| | PK computes JK                  :      0.000u      0.000s      0.000w     15 calls
| JK: AO2USO                        :      0.000u      0.000s      0.000w     15 calls
HF: Form F                          :      0.000u      0.000s      0.000w     15 calls
HF: Form D                          :      0.000u      0.000s      0.000w     15 calls
HF: DIIS                            :      0.033u      0.000s      0.010w     13 calls
| DIISManager::add_entry            :      0.000u      0.000s      0.001w     13 calls
| DIISManager::extrapolate          :      0.000u      0.000s      0.002w     13 calls
| | bMatrix setup                   :      0.000u      0.000s      0.001w     13 calls
| | bMatrix pseudoinverse           :      0.000u      0.000s      0.001w     13 calls
| | New vector                      :      0.000u      0.000s      0.000w     13 calls
HF: Form C                          :      0.000u      0.000s      0.001w     13 calls

**************************************************************************************

Host: penguin

Timers On : Thu Jan  2 16:16:26 2020
Timers Off: Thu Jan  2 16:17:00 2020

Wall Time:       34.01 seconds

                                                       Time (seconds)
Module                                       User      System        Wall        Calls
Total PK formation time             :      0.100u      0.000s      0.071w      2 calls
HF: Form core H                     :      0.000u      0.000s      0.002w      2 calls
HF: Form S/X                        :      0.000u      0.000s      0.000w      2 calls
HF: Guess                           :      0.550u      0.000s      0.330w      2 calls
SAD Guess                           :      0.483u      0.000s      0.302w      2 calls
HF: Form G                          :      0.000u      0.000s      0.001w     15 calls
JK: D                               :      0.000u      0.000s      0.000w     15 calls
JK: USO2AO                          :      0.000u      0.000s      0.000w     15 calls
JK: JK                              :      0.000u      0.000s      0.000w     15 calls
PK computes JK                      :      0.000u      0.000s      0.000w     15 calls
JK: AO2USO                          :      0.000u      0.000s      0.000w     15 calls
HF: Form F                          :      0.000u      0.000s      0.000w     15 calls
HF: Form D                          :      0.000u      0.000s      0.000w     15 calls
HF: DIIS                            :      0.017u      0.000s      0.009w     13 calls
DIISManager::add_entry              :      0.000u      0.000s      0.001w     13 calls
DIISManager::extrapolate            :      0.000u      0.000s      0.002w     13 calls
bMatrix setup                       :      0.000u      0.000s      0.000w     13 calls
bMatrix pseudoinverse               :      0.000u      0.000s      0.001w     13 calls
New vector                          :      0.000u      0.000s      0.000w     13 calls
HF: Form C                          :      0.000u      0.000s      0.000w     13 calls

--------------------------------------------------------------------------------------
Total PK formation time             :      0.100u      0.000s      0.071w      2 calls
HF: Form core H                     :      0.000u      0.000s      0.002w      2 calls
HF: Form S/X                        :      0.000u      0.000s      0.000w      2 calls
HF: Guess                           :      0.550u      0.000s      0.330w      2 calls
| SAD Guess                         :      0.483u      0.000s      0.302w      2 calls
HF: Form G                          :      0.000u      0.000s      0.001w     15 calls
| JK: D                             :      0.000u      0.000s      0.000w     15 calls
| JK: USO2AO                        :      0.000u      0.000s      0.000w     15 calls
| JK: JK                            :      0.000u      0.000s      0.000w     15 calls
| | PK computes JK                  :      0.000u      0.000s      0.000w     15 calls
| JK: AO2USO                        :      0.000u      0.000s      0.000w     15 calls
HF: Form F                          :      0.000u      0.000s      0.000w     15 calls
HF: Form D                          :      0.000u      0.000s      0.000w     15 calls
HF: DIIS                            :      0.017u      0.000s      0.009w     13 calls
| DIISManager::add_entry            :      0.000u      0.000s      0.001w     13 calls
| DIISManager::extrapolate          :      0.000u      0.000s      0.002w     13 calls
| | bMatrix setup                   :      0.000u      0.000s      0.000w     13 calls
| | bMatrix pseudoinverse           :      0.000u      0.000s      0.001w     13 calls
| | New vector                      :      0.000u      0.000s      0.000w     13 calls
HF: Form C                          :      0.000u      0.000s      0.000w     13 calls

**************************************************************************************

Host: penguin

Timers On : Thu Jan  2 16:19:48 2020
Timers Off: Thu Jan  2 16:20:50 2020

Wall Time:       62.26 seconds

                                                       Time (seconds)
Module                                       User      System        Wall        Calls
Total PK formation time             :      0.117u      0.000s      0.072w      2 calls
HF: Form core H                     :      0.017u      0.000s      0.007w      2 calls
HF: Form S/X                        :      0.000u      0.000s      0.000w      2 calls
HF: Guess                           :      0.500u      0.000s      0.310w      2 calls
SAD Guess                           :      0.467u      0.000s      0.282w      2 calls
HF: Form G                          :      0.000u      0.000s      0.001w     15 calls
JK: D                               :      0.000u      0.000s      0.000w     15 calls
JK: USO2AO                          :      0.000u      0.000s      0.000w     15 calls
JK: JK                              :      0.000u      0.000s      0.000w     15 calls
PK computes JK                      :      0.000u      0.000s      0.000w     15 calls
JK: AO2USO                          :      0.000u      0.000s      0.000w     15 calls
HF: Form F                          :      0.000u      0.000s      0.000w     15 calls
HF: Form D                          :      0.000u      0.000s      0.000w     15 calls
HF: DIIS                            :      0.000u      0.000s      0.008w     13 calls
DIISManager::add_entry              :      0.000u      0.000s      0.001w     13 calls
DIISManager::extrapolate            :      0.000u      0.000s      0.002w     13 calls
bMatrix setup                       :      0.000u      0.000s      0.001w     13 calls
bMatrix pseudoinverse               :      0.000u      0.000s      0.001w     13 calls
New vector                          :      0.000u      0.000s      0.000w     13 calls
HF: Form C                          :      0.000u      0.000s      0.000w     13 calls

--------------------------------------------------------------------------------------
Total PK formation time             :      0.117u      0.000s      0.072w      2 calls
HF: Form core H                     :      0.017u      0.000s      0.007w      2 calls
HF: Form S/X                        :      0.000u      0.000s      0.000w      2 calls
HF: Guess                           :      0.500u      0.000s      0.310w      2 calls
| SAD Guess                         :      0.467u      0.000s      0.282w      2 calls
HF: Form G                          :      0.000u      0.000s      0.001w     15 calls
| JK: D                             :      0.000u      0.000s      0.000w     15 calls
| JK: USO2AO                        :      0.000u      0.000s      0.000w     15 calls
| JK: JK                            :      0.000u      0.000s      0.000w     15 calls
| | PK computes JK                  :      0.000u      0.000s      0.000w     15 calls
| JK: AO2USO                        :      0.000u      0.000s      0.000w     15 calls
HF: Form F                          :      0.000u      0.000s      0.000w     15 calls
HF: Form D                          :      0.000u      0.000s      0.000w     15 calls
HF: DIIS                            :      0.000u      0.000s      0.008w     13 calls
| DIISManager::add_entry            :      0.000u      0.000s      0.001w     13 calls
| DIISManager::extrapolate          :      0.000u      0.000s      0.002w     13 calls
| | bMatrix setup                   :      0.000u      0.000s      0.001w     13 calls
| | bMatrix pseudoinverse           :      0.000u      0.000s      0.001w     13 calls
| | New vector                      :      0.000u      0.000s      0.000w     13 calls
HF: Form C                          :      0.000u      0.000s      0.000w     13 calls

**************************************************************************************

Host: penguin

Timers On : Thu Jan  2 16:28:52 2020
Timers Off: Thu Jan  2 16:29:56 2020

Wall Time:       64.07 seconds

                                                       Time (seconds)
Module                                       User      System        Wall        Calls
Total PK formation time             :      0.117u      0.000s      0.070w      2 calls
HF: Form core H                     :      0.000u      0.017s      0.006w      2 calls
HF: Form S/X                        :      0.000u      0.000s      0.000w      2 calls
HF: Guess                           :      0.533u      0.000s      0.319w      2 calls
SAD Guess                           :      0.483u      0.000s      0.290w      2 calls
HF: Form G                          :      0.000u      0.000s      0.001w     15 calls
JK: D                               :      0.000u      0.000s      0.000w     15 calls
JK: USO2AO                          :      0.000u      0.000s      0.000w     15 calls
JK: JK                              :      0.000u      0.000s      0.000w     15 calls
PK computes JK                      :      0.000u      0.000s      0.000w     15 calls
JK: AO2USO                          :      0.000u      0.000s      0.000w     15 calls
HF: Form F                          :      0.000u      0.000s      0.000w     15 calls
HF: Form D                          :      0.000u      0.000s      0.000w     15 calls
HF: DIIS                            :      0.017u      0.000s      0.011w     13 calls
DIISManager::add_entry              :      0.000u      0.000s      0.001w     13 calls
DIISManager::extrapolate            :      0.000u      0.000s      0.002w     13 calls
bMatrix setup                       :      0.000u      0.000s      0.001w     13 calls
bMatrix pseudoinverse               :      0.000u      0.000s      0.001w     13 calls
New vector                          :      0.000u      0.000s      0.000w     13 calls
HF: Form C                          :      0.000u      0.000s      0.000w     13 calls

--------------------------------------------------------------------------------------
Total PK formation time             :      0.117u      0.000s      0.070w      2 calls
HF: Form core H                     :      0.000u      0.017s      0.006w      2 calls
HF: Form S/X                        :      0.000u      0.000s      0.000w      2 calls
HF: Guess                           :      0.533u      0.000s      0.319w      2 calls
| SAD Guess                         :      0.483u      0.000s      0.290w      2 calls
HF: Form G                          :      0.000u      0.000s      0.001w     15 calls
| JK: D                             :      0.000u      0.000s      0.000w     15 calls
| JK: USO2AO                        :      0.000u      0.000s      0.000w     15 calls
| JK: JK                            :      0.000u      0.000s      0.000w     15 calls
| | PK computes JK                  :      0.000u      0.000s      0.000w     15 calls
| JK: AO2USO                        :      0.000u      0.000s      0.000w     15 calls
HF: Form F                          :      0.000u      0.000s      0.000w     15 calls
HF: Form D                          :      0.000u      0.000s      0.000w     15 calls
HF: DIIS                            :      0.017u      0.000s      0.011w     13 calls
| DIISManager::add_entry            :      0.000u      0.000s      0.001w     13 calls
| DIISManager::extrapolate          :      0.000u      0.000s      0.002w     13 calls
| | bMatrix setup                   :      0.000u      0.000s      0.001w     13 calls
| | bMatrix pseudoinverse           :      0.000u      0.000s      0.001w     13 calls
| | New vector                      :      0.000u      0.000s      0.000w     13 calls
HF: Form C                          :      0.000u      0.000s      0.000w     13 calls

**************************************************************************************

Host: penguin

Timers On : Thu Jan  2 16:37:05 2020
Timers Off: Thu Jan  2 16:37:36 2020

Wall Time:       30.42 seconds

                                                       Time (seconds)
Module                                       User      System        Wall        Calls

--------------------------------------------------------------------------------------

**************************************************************************************

Host: penguin

Timers On : Thu Jan  2 16:39:33 2020
Timers Off: Thu Jan  2 16:39:42 2020

Wall Time:        9.54 seconds

                                                       Time (seconds)
Module                                       User      System        Wall        Calls

--------------------------------------------------------------------------------------

**************************************************************************************

Host: penguin

Timers On : Thu Jan  2 16:41:01 2020
Timers Off: Thu Jan  2 16:41:32 2020

Wall Time:       31.61 seconds

                                                       Time (seconds)
Module                                       User      System        Wall        Calls

--------------------------------------------------------------------------------------

**************************************************************************************

Host: penguin

Timers On : Thu Jan  2 16:44:20 2020
Timers Off: Thu Jan  2 16:44:58 2020

Wall Time:       38.86 seconds

                                                       Time (seconds)
Module                                       User      System        Wall        Calls

--------------------------------------------------------------------------------------

**************************************************************************************

Host: penguin

Timers On : Thu Jan  2 16:47:07 2020
Timers Off: Thu Jan  2 16:47:13 2020

Wall Time:        5.17 seconds

                                                       Time (seconds)
Module                                       User      System        Wall        Calls

--------------------------------------------------------------------------------------

**************************************************************************************

Host: penguin

Timers On : Thu Jan  2 16:48:49 2020
Timers Off: Thu Jan  2 16:49:00 2020

Wall Time:       10.65 seconds

                                                       Time (seconds)
Module                                       User      System        Wall        Calls

--------------------------------------------------------------------------------------

**************************************************************************************

Host: penguin

Timers On : Thu Jan  2 16:49:47 2020
Timers Off: Thu Jan  2 16:49:57 2020

Wall Time:       10.25 seconds

                                                       Time (seconds)
Module                                       User      System        Wall        Calls

--------------------------------------------------------------------------------------

**************************************************************************************

Host: penguin

Timers On : Thu Jan  2 16:50:49 2020
Timers Off: Thu Jan  2 16:50:59 2020

Wall Time:       10.97 seconds

                                                       Time (seconds)
Module                                       User      System        Wall        Calls

--------------------------------------------------------------------------------------

**************************************************************************************

Host: penguin

Timers On : Thu Jan  2 16:53:20 2020
Timers Off: Thu Jan  2 16:53:30 2020

Wall Time:        9.97 seconds

                                                       Time (seconds)
Module                                       User      System        Wall        Calls

--------------------------------------------------------------------------------------

**************************************************************************************

Host: penguin

Timers On : Thu Jan  2 16:56:38 2020
Timers Off: Thu Jan  2 16:57:14 2020

Wall Time:       35.99 seconds

                                                       Time (seconds)
Module                                       User      System        Wall        Calls

--------------------------------------------------------------------------------------

**************************************************************************************

Host: penguin

Timers On : Thu Jan  2 17:01:04 2020
Timers Off: Thu Jan  2 17:01:35 2020

Wall Time:       30.46 seconds

                                                       Time (seconds)
Module                                       User      System        Wall        Calls

--------------------------------------------------------------------------------------

**************************************************************************************

Host: penguin

Timers On : Thu Jan  2 17:02:24 2020
Timers Off: Thu Jan  2 17:02:34 2020

Wall Time:        9.97 seconds

                                                       Time (seconds)
Module                                       User      System        Wall        Calls

--------------------------------------------------------------------------------------

**************************************************************************************

Host: penguin

Timers On : Thu Jan  2 17:05:42 2020
Timers Off: Thu Jan  2 17:05:52 2020

Wall Time:        9.80 seconds

                                                       Time (seconds)
Module                                       User      System        Wall        Calls

--------------------------------------------------------------------------------------

**************************************************************************************

Host: penguin

Timers On : Thu Jan  2 17:06:45 2020
Timers Off: Thu Jan  2 17:06:55 2020

Wall Time:       10.36 seconds

                                                       Time (seconds)
Module                                       User      System        Wall        Calls

--------------------------------------------------------------------------------------

**************************************************************************************

Host: penguin

Timers On : Thu Jan  2 17:10:05 2020
Timers Off: Thu Jan  2 17:10:15 2020

Wall Time:        9.60 seconds

                                                       Time (seconds)
Module                                       User      System        Wall        Calls

--------------------------------------------------------------------------------------

**************************************************************************************

Host: penguin

Timers On : Thu Jan  2 17:16:06 2020
Timers Off: Thu Jan  2 17:16:20 2020

Wall Time:       14.40 seconds

                                                       Time (seconds)
Module                                       User      System        Wall        Calls

--------------------------------------------------------------------------------------

**************************************************************************************

Host: penguin

Timers On : Thu Jan  2 17:16:32 2020
Timers Off: Thu Jan  2 17:16:56 2020

Wall Time:       24.15 seconds

                                                       Time (seconds)
Module                                       User      System        Wall        Calls

--------------------------------------------------------------------------------------

**************************************************************************************

Host: penguin

Timers On : Thu Jan  2 17:19:20 2020
Timers Off: Thu Jan  2 17:19:31 2020

Wall Time:       10.32 seconds

                                                       Time (seconds)
Module                                       User      System        Wall        Calls

--------------------------------------------------------------------------------------

**************************************************************************************

Host: penguin

Timers On : Thu Jan  2 17:20:08 2020
Timers Off: Thu Jan  2 17:20:39 2020

Wall Time:       30.56 seconds

                                                       Time (seconds)
Module                                       User      System        Wall        Calls

--------------------------------------------------------------------------------------

**************************************************************************************

Host: penguin

Timers On : Thu Jan  2 17:23:40 2020
Timers Off: Thu Jan  2 17:24:15 2020

Wall Time:       35.05 seconds

                                                       Time (seconds)
Module                                       User      System        Wall        Calls

--------------------------------------------------------------------------------------

**************************************************************************************

Host: penguin

Timers On : Thu Jan  2 17:26:21 2020
Timers Off: Thu Jan  2 17:26:52 2020

Wall Time:       30.84 seconds

                                                       Time (seconds)
Module                                       User      System        Wall        Calls

--------------------------------------------------------------------------------------

**************************************************************************************

Host: penguin

Timers On : Thu Jan  2 19:47:03 2020
Timers Off: Thu Jan  2 19:47:24 2020

Wall Time:       21.04 seconds

                                                       Time (seconds)
Module                                       User      System        Wall        Calls

--------------------------------------------------------------------------------------

**************************************************************************************

Host: penguin

Timers On : Thu Jan  2 19:48:15 2020
Timers Off: Thu Jan  2 19:48:36 2020

Wall Time:       20.84 seconds

                                                       Time (seconds)
Module                                       User      System        Wall        Calls

--------------------------------------------------------------------------------------

**************************************************************************************

Host: penguin

Timers On : Thu Jan  2 19:51:10 2020
Timers Off: Thu Jan  2 19:51:31 2020

Wall Time:       20.85 seconds

                                                       Time (seconds)
Module                                       User      System        Wall        Calls

--------------------------------------------------------------------------------------

**************************************************************************************

Host: penguin

Timers On : Thu Jan  2 19:52:31 2020
Timers Off: Thu Jan  2 19:52:53 2020

Wall Time:       22.06 seconds

                                                       Time (seconds)
Module                                       User      System        Wall        Calls

--------------------------------------------------------------------------------------

**************************************************************************************

Host: penguin

Timers On : Thu Jan  2 19:53:13 2020
Timers Off: Thu Jan  2 19:53:50 2020

Wall Time:       36.90 seconds

                                                       Time (seconds)
Module                                       User      System        Wall        Calls

--------------------------------------------------------------------------------------

**************************************************************************************

Host: penguin

Timers On : Thu Jan  2 19:55:42 2020
Timers Off: Thu Jan  2 19:55:50 2020

Wall Time:        8.10 seconds

                                                       Time (seconds)
Module                                       User      System        Wall        Calls

--------------------------------------------------------------------------------------

**************************************************************************************

Host: penguin

Timers On : Thu Jan  2 19:57:18 2020
Timers Off: Thu Jan  2 19:57:50 2020

Wall Time:       32.00 seconds

                                                       Time (seconds)
Module                                       User      System        Wall        Calls

--------------------------------------------------------------------------------------

**************************************************************************************

Host: penguin

Timers On : Thu Jan  2 20:10:08 2020
Timers Off: Thu Jan  2 20:10:47 2020

Wall Time:       38.61 seconds

                                                       Time (seconds)
Module                                       User      System        Wall        Calls

--------------------------------------------------------------------------------------

**************************************************************************************

Host: penguin

Timers On : Thu Jan  2 20:12:55 2020
Timers Off: Thu Jan  2 20:13:33 2020

Wall Time:       38.02 seconds

                                                       Time (seconds)
Module                                       User      System        Wall        Calls

--------------------------------------------------------------------------------------

**************************************************************************************

Host: penguin

Timers On : Thu Jan  2 20:17:07 2020
Timers Off: Thu Jan  2 20:17:42 2020

Wall Time:       34.73 seconds

                                                       Time (seconds)
Module                                       User      System        Wall        Calls

--------------------------------------------------------------------------------------

**************************************************************************************

Host: penguin

Timers On : Thu Jan  2 20:24:42 2020
Timers Off: Thu Jan  2 20:25:21 2020

Wall Time:       39.10 seconds

                                                       Time (seconds)
Module                                       User      System        Wall        Calls

--------------------------------------------------------------------------------------

**************************************************************************************

Host: penguin

Timers On : Thu Jan  2 20:27:31 2020
Timers Off: Thu Jan  2 20:28:06 2020

Wall Time:       34.84 seconds

                                                       Time (seconds)
Module                                       User      System        Wall        Calls

--------------------------------------------------------------------------------------

**************************************************************************************

Host: penguin

Timers On : Thu Jan  2 21:09:25 2020
Timers Off: Thu Jan  2 21:09:59 2020

Wall Time:       33.46 seconds

                                                       Time (seconds)
Module                                       User      System        Wall        Calls

--------------------------------------------------------------------------------------

**************************************************************************************

Host: penguin

Timers On : Thu Jan  2 21:18:18 2020
Timers Off: Thu Jan  2 21:18:51 2020

Wall Time:       33.04 seconds

                                                       Time (seconds)
Module                                       User      System        Wall        Calls

--------------------------------------------------------------------------------------

**************************************************************************************

Host: penguin

Timers On : Fri Jan  3 18:05:27 2020
Timers Off: Fri Jan  3 18:05:42 2020

Wall Time:       15.46 seconds

                                                       Time (seconds)
Module                                       User      System        Wall        Calls

--------------------------------------------------------------------------------------

**************************************************************************************

Host: penguin

Timers On : Fri Jan  3 18:07:22 2020
Timers Off: Fri Jan  3 18:07:56 2020

Wall Time:       34.59 seconds

                                                       Time (seconds)
Module                                       User      System        Wall        Calls

--------------------------------------------------------------------------------------

**************************************************************************************

Host: penguin

Timers On : Fri Jan  3 18:13:33 2020
Timers Off: Fri Jan  3 18:14:06 2020

Wall Time:       32.76 seconds

                                                       Time (seconds)
Module                                       User      System        Wall        Calls

--------------------------------------------------------------------------------------

**************************************************************************************

Host: penguin

Timers On : Fri Jan  3 18:31:31 2020
Timers Off: Fri Jan  3 18:32:01 2020

Wall Time:       29.53 seconds

                                                       Time (seconds)
Module                                       User      System        Wall        Calls

--------------------------------------------------------------------------------------

**************************************************************************************

Host: penguin

Timers On : Fri Jan  3 18:33:00 2020
Timers Off: Fri Jan  3 18:33:29 2020

Wall Time:       28.79 seconds

                                                       Time (seconds)
Module                                       User      System        Wall        Calls

--------------------------------------------------------------------------------------

**************************************************************************************

Host: penguin

Timers On : Fri Jan  3 18:35:44 2020
Timers Off: Fri Jan  3 18:36:17 2020

Wall Time:       33.11 seconds

                                                       Time (seconds)
Module                                       User      System        Wall        Calls

--------------------------------------------------------------------------------------

**************************************************************************************

Host: penguin

Timers On : Fri Jan  3 18:37:06 2020
Timers Off: Fri Jan  3 18:37:35 2020

Wall Time:       29.16 seconds

                                                       Time (seconds)
Module                                       User      System        Wall        Calls

--------------------------------------------------------------------------------------

**************************************************************************************

Host: penguin

Timers On : Fri Jan  3 18:39:04 2020
Timers Off: Fri Jan  3 18:39:38 2020

Wall Time:       33.26 seconds

                                                       Time (seconds)
Module                                       User      System        Wall        Calls

--------------------------------------------------------------------------------------

**************************************************************************************

Host: penguin

Timers On : Fri Jan  3 18:41:06 2020
Timers Off: Fri Jan  3 18:41:39 2020

Wall Time:       32.99 seconds

                                                       Time (seconds)
Module                                       User      System        Wall        Calls

--------------------------------------------------------------------------------------

**************************************************************************************

Host: penguin

Timers On : Fri Jan  3 18:57:23 2020
Timers Off: Fri Jan  3 18:57:27 2020

Wall Time:        4.06 seconds

                                                       Time (seconds)
Module                                       User      System        Wall        Calls
Total PK formation time             :      0.033u      0.000s      0.026w      1 calls
HF: Form core H                     :      0.000u      0.000s      0.001w      1 calls
HF: Form S/X                        :      0.000u      0.000s      0.000w      1 calls
HF: Guess                           :      0.150u      0.000s      0.092w      1 calls
SAD Guess                           :      0.133u      0.000s      0.081w      1 calls
HF: Form G                          :      0.000u      0.000s      0.000w      3 calls
JK: D                               :      0.000u      0.000s      0.000w      3 calls
JK: USO2AO                          :      0.000u      0.000s      0.000w      3 calls
JK: JK                              :      0.000u      0.000s      0.000w      3 calls
PK computes JK                      :      0.000u      0.000s      0.000w      3 calls
JK: AO2USO                          :      0.000u      0.000s      0.000w      3 calls
HF: Form F                          :      0.000u      0.000s      0.000w      3 calls
HF: Form D                          :      0.000u      0.000s      0.000w      3 calls
HF: DIIS                            :      0.000u      0.000s      0.001w      2 calls
DIISManager::add_entry              :      0.000u      0.000s      0.000w      2 calls
DIISManager::extrapolate            :      0.000u      0.000s      0.000w      2 calls
bMatrix setup                       :      0.000u      0.000s      0.000w      2 calls
bMatrix pseudoinverse               :      0.000u      0.000s      0.000w      2 calls
New vector                          :      0.000u      0.000s      0.000w      2 calls
HF: Form C                          :      0.000u      0.000s      0.000w      2 calls

--------------------------------------------------------------------------------------
Total PK formation time             :      0.033u      0.000s      0.026w      1 calls
HF: Form core H                     :      0.000u      0.000s      0.001w      1 calls
HF: Form S/X                        :      0.000u      0.000s      0.000w      1 calls
HF: Guess                           :      0.150u      0.000s      0.092w      1 calls
| SAD Guess                         :      0.133u      0.000s      0.081w      1 calls
HF: Form G                          :      0.000u      0.000s      0.000w      3 calls
| JK: D                             :      0.000u      0.000s      0.000w      3 calls
| JK: USO2AO                        :      0.000u      0.000s      0.000w      3 calls
| JK: JK                            :      0.000u      0.000s      0.000w      3 calls
| | PK computes JK                  :      0.000u      0.000s      0.000w      3 calls
| JK: AO2USO                        :      0.000u      0.000s      0.000w      3 calls
HF: Form F                          :      0.000u      0.000s      0.000w      3 calls
HF: Form D                          :      0.000u      0.000s      0.000w      3 calls
HF: DIIS                            :      0.000u      0.000s      0.001w      2 calls
| DIISManager::add_entry            :      0.000u      0.000s      0.000w      2 calls
| DIISManager::extrapolate          :      0.000u      0.000s      0.000w      2 calls
| | bMatrix setup                   :      0.000u      0.000s      0.000w      2 calls
| | bMatrix pseudoinverse           :      0.000u      0.000s      0.000w      2 calls
| | New vector                      :      0.000u      0.000s      0.000w      2 calls
HF: Form C                          :      0.000u      0.000s      0.000w      2 calls

**************************************************************************************

Host: penguin

Timers On : Fri Jan  3 20:20:17 2020
Timers Off: Fri Jan  3 20:20:19 2020

Wall Time:        2.01 seconds

                                                       Time (seconds)
Module                                       User      System        Wall        Calls

--------------------------------------------------------------------------------------

**************************************************************************************

Host: penguin

Timers On : Fri Jan  3 20:21:55 2020
Timers Off: Fri Jan  3 20:21:56 2020

Wall Time:        0.71 seconds

                                                       Time (seconds)
Module                                       User      System        Wall        Calls

--------------------------------------------------------------------------------------

**************************************************************************************

Host: penguin

Timers On : Fri Jan  3 20:21:56 2020
Timers Off: Fri Jan  3 20:22:01 2020

Wall Time:        4.89 seconds

                                                       Time (seconds)
Module                                       User      System        Wall        Calls
Total PK formation time             :      0.050u      0.000s      0.029w      1 calls
HF: Form core H                     :      0.000u      0.000s      0.001w      1 calls
HF: Form S/X                        :      0.000u      0.000s      0.000w      1 calls
HF: Guess                           :      0.267u      0.000s      0.167w      1 calls
SAD Guess                           :      0.250u      0.000s      0.157w      1 calls
HF: Form G                          :      0.000u      0.000s      0.001w     13 calls
JK: D                               :      0.000u      0.000s      0.000w     13 calls
JK: USO2AO                          :      0.000u      0.000s      0.000w     13 calls
JK: JK                              :      0.000u      0.000s      0.000w     13 calls
PK computes JK                      :      0.000u      0.000s      0.000w     13 calls
JK: AO2USO                          :      0.000u      0.000s      0.000w     13 calls
HF: Form F                          :      0.000u      0.000s      0.000w     13 calls
HF: Form D                          :      0.000u      0.000s      0.000w     13 calls
HF: DIIS                            :      0.017u      0.000s      0.007w     12 calls
DIISManager::add_entry              :      0.000u      0.000s      0.001w     12 calls
DIISManager::extrapolate            :      0.000u      0.000s      0.001w     12 calls
bMatrix setup                       :      0.000u      0.000s      0.000w     12 calls
bMatrix pseudoinverse               :      0.000u      0.000s      0.000w     12 calls
New vector                          :      0.000u      0.000s      0.000w     12 calls
HF: Form C                          :      0.000u      0.000s      0.000w     12 calls

--------------------------------------------------------------------------------------
Total PK formation time             :      0.050u      0.000s      0.029w      1 calls
HF: Form core H                     :      0.000u      0.000s      0.001w      1 calls
HF: Form S/X                        :      0.000u      0.000s      0.000w      1 calls
HF: Guess                           :      0.267u      0.000s      0.167w      1 calls
| SAD Guess                         :      0.250u      0.000s      0.157w      1 calls
HF: Form G                          :      0.000u      0.000s      0.001w     13 calls
| JK: D                             :      0.000u      0.000s      0.000w     13 calls
| JK: USO2AO                        :      0.000u      0.000s      0.000w     13 calls
| JK: JK                            :      0.000u      0.000s      0.000w     13 calls
| | PK computes JK                  :      0.000u      0.000s      0.000w     13 calls
| JK: AO2USO                        :      0.000u      0.000s      0.000w     13 calls
HF: Form F                          :      0.000u      0.000s      0.000w     13 calls
HF: Form D                          :      0.000u      0.000s      0.000w     13 calls
HF: DIIS                            :      0.017u      0.000s      0.007w     12 calls
| DIISManager::add_entry            :      0.000u      0.000s      0.001w     12 calls
| DIISManager::extrapolate          :      0.000u      0.000s      0.001w     12 calls
| | bMatrix setup                   :      0.000u      0.000s      0.000w     12 calls
| | bMatrix pseudoinverse           :      0.000u      0.000s      0.000w     12 calls
| | New vector                      :      0.000u      0.000s      0.000w     12 calls
HF: Form C                          :      0.000u      0.000s      0.000w     12 calls

**************************************************************************************

Host: penguin

Timers On : Fri Jan  3 20:22:26 2020
Timers Off: Fri Jan  3 20:22:31 2020

Wall Time:        4.22 seconds

                                                       Time (seconds)
Module                                       User      System        Wall        Calls
Total PK formation time             :      0.050u      0.000s      0.028w      1 calls
HF: Form core H                     :      0.000u      0.000s      0.001w      1 calls
HF: Form S/X                        :      0.000u      0.000s      0.000w      1 calls
HF: Guess                           :      0.267u      0.000s      0.162w      1 calls
SAD Guess                           :      0.250u      0.000s      0.152w      1 calls
HF: Form G                          :      0.000u      0.000s      0.001w     13 calls
JK: D                               :      0.000u      0.000s      0.000w     13 calls
JK: USO2AO                          :      0.000u      0.000s      0.000w     13 calls
JK: JK                              :      0.000u      0.000s      0.000w     13 calls
PK computes JK                      :      0.000u      0.000s      0.000w     13 calls
JK: AO2USO                          :      0.000u      0.000s      0.000w     13 calls
HF: Form F                          :      0.000u      0.000s      0.000w     13 calls
HF: Form D                          :      0.000u      0.000s      0.000w     13 calls
HF: DIIS                            :      0.017u      0.000s      0.006w     12 calls
DIISManager::add_entry              :      0.000u      0.000s      0.001w     12 calls
DIISManager::extrapolate            :      0.000u      0.000s      0.001w     12 calls
bMatrix setup                       :      0.000u      0.000s      0.000w     12 calls
bMatrix pseudoinverse               :      0.000u      0.000s      0.000w     12 calls
New vector                          :      0.000u      0.000s      0.000w     12 calls
HF: Form C                          :      0.000u      0.000s      0.000w     12 calls

--------------------------------------------------------------------------------------
Total PK formation time             :      0.050u      0.000s      0.028w      1 calls
HF: Form core H                     :      0.000u      0.000s      0.001w      1 calls
HF: Form S/X                        :      0.000u      0.000s      0.000w      1 calls
HF: Guess                           :      0.267u      0.000s      0.162w      1 calls
| SAD Guess                         :      0.250u      0.000s      0.152w      1 calls
HF: Form G                          :      0.000u      0.000s      0.001w     13 calls
| JK: D                             :      0.000u      0.000s      0.000w     13 calls
| JK: USO2AO                        :      0.000u      0.000s      0.000w     13 calls
| JK: JK                            :      0.000u      0.000s      0.000w     13 calls
| | PK computes JK                  :      0.000u      0.000s      0.000w     13 calls
| JK: AO2USO                        :      0.000u      0.000s      0.000w     13 calls
HF: Form F                          :      0.000u      0.000s      0.000w     13 calls
HF: Form D                          :      0.000u      0.000s      0.000w     13 calls
HF: DIIS                            :      0.017u      0.000s      0.006w     12 calls
| DIISManager::add_entry            :      0.000u      0.000s      0.001w     12 calls
| DIISManager::extrapolate          :      0.000u      0.000s      0.001w     12 calls
| | bMatrix setup                   :      0.000u      0.000s      0.000w     12 calls
| | bMatrix pseudoinverse           :      0.000u      0.000s      0.000w     12 calls
| | New vector                      :      0.000u      0.000s      0.000w     12 calls
HF: Form C                          :      0.000u      0.000s      0.000w     12 calls

**************************************************************************************

Host: penguin

Timers On : Fri Jan  3 20:22:54 2020
Timers Off: Fri Jan  3 20:23:01 2020

Wall Time:        7.21 seconds

                                                       Time (seconds)
Module                                       User      System        Wall        Calls
Total PK formation time             :      0.050u      0.000s      0.029w      1 calls
HF: Form core H                     :      0.000u      0.000s      0.001w      1 calls
HF: Form S/X                        :      0.000u      0.000s      0.000w      1 calls
HF: Guess                           :      0.267u      0.000s      0.160w      1 calls
SAD Guess                           :      0.250u      0.000s      0.150w      1 calls
HF: Form G                          :      0.000u      0.000s      0.001w     12 calls
JK: D                               :      0.000u      0.000s      0.000w     12 calls
JK: USO2AO                          :      0.000u      0.000s      0.000w     12 calls
JK: JK                              :      0.000u      0.000s      0.000w     12 calls
PK computes JK                      :      0.000u      0.000s      0.000w     12 calls
JK: AO2USO                          :      0.000u      0.000s      0.000w     12 calls
HF: Form F                          :      0.000u      0.000s      0.000w     12 calls
HF: Form D                          :      0.000u      0.000s      0.000w     12 calls
HF: DIIS                            :      0.000u      0.000s      0.005w     11 calls
DIISManager::add_entry              :      0.000u      0.000s      0.001w     11 calls
DIISManager::extrapolate            :      0.000u      0.000s      0.001w     11 calls
bMatrix setup                       :      0.000u      0.000s      0.000w     11 calls
bMatrix pseudoinverse               :      0.000u      0.000s      0.000w     11 calls
New vector                          :      0.000u      0.000s      0.000w     11 calls
HF: Form C                          :      0.000u      0.000s      0.000w     11 calls

--------------------------------------------------------------------------------------
Total PK formation time             :      0.050u      0.000s      0.029w      1 calls
HF: Form core H                     :      0.000u      0.000s      0.001w      1 calls
HF: Form S/X                        :      0.000u      0.000s      0.000w      1 calls
HF: Guess                           :      0.267u      0.000s      0.160w      1 calls
| SAD Guess                         :      0.250u      0.000s      0.150w      1 calls
HF: Form G                          :      0.000u      0.000s      0.001w     12 calls
| JK: D                             :      0.000u      0.000s      0.000w     12 calls
| JK: USO2AO                        :      0.000u      0.000s      0.000w     12 calls
| JK: JK                            :      0.000u      0.000s      0.000w     12 calls
| | PK computes JK                  :      0.000u      0.000s      0.000w     12 calls
| JK: AO2USO                        :      0.000u      0.000s      0.000w     12 calls
HF: Form F                          :      0.000u      0.000s      0.000w     12 calls
HF: Form D                          :      0.000u      0.000s      0.000w     12 calls
HF: DIIS                            :      0.000u      0.000s      0.005w     11 calls
| DIISManager::add_entry            :      0.000u      0.000s      0.001w     11 calls
| DIISManager::extrapolate          :      0.000u      0.000s      0.001w     11 calls
| | bMatrix setup                   :      0.000u      0.000s      0.000w     11 calls
| | bMatrix pseudoinverse           :      0.000u      0.000s      0.000w     11 calls
| | New vector                      :      0.000u      0.000s      0.000w     11 calls
HF: Form C                          :      0.000u      0.000s      0.000w     11 calls

**************************************************************************************

Host: penguin

Timers On : Fri Jan  3 20:23:52 2020
Timers Off: Fri Jan  3 20:23:57 2020

Wall Time:        5.95 seconds

                                                       Time (seconds)
Module                                       User      System        Wall        Calls
Total PK formation time             :      0.100u      0.000s      0.057w      2 calls
HF: Form core H                     :      0.000u      0.000s      0.001w      2 calls
HF: Form S/X                        :      0.000u      0.000s      0.000w      2 calls
HF: Guess                           :      0.400u      0.000s      0.243w      2 calls
SAD Guess                           :      0.367u      0.000s      0.221w      2 calls
HF: Form G                          :      0.000u      0.000s      0.001w     15 calls
JK: D                               :      0.000u      0.000s      0.000w     15 calls
JK: USO2AO                          :      0.000u      0.000s      0.000w     15 calls
JK: JK                              :      0.000u      0.000s      0.000w     15 calls
PK computes JK                      :      0.000u      0.000s      0.000w     15 calls
JK: AO2USO                          :      0.000u      0.000s      0.000w     15 calls
HF: Form F                          :      0.000u      0.000s      0.000w     15 calls
HF: Form D                          :      0.000u      0.000s      0.000w     15 calls
HF: DIIS                            :      0.033u      0.000s      0.007w     13 calls
DIISManager::add_entry              :      0.000u      0.000s      0.001w     13 calls
DIISManager::extrapolate            :      0.000u      0.000s      0.001w     13 calls
bMatrix setup                       :      0.000u      0.000s      0.000w     13 calls
bMatrix pseudoinverse               :      0.000u      0.000s      0.000w     13 calls
New vector                          :      0.000u      0.000s      0.000w     13 calls
HF: Form C                          :      0.000u      0.000s      0.000w     13 calls

--------------------------------------------------------------------------------------
Total PK formation time             :      0.100u      0.000s      0.057w      2 calls
HF: Form core H                     :      0.000u      0.000s      0.001w      2 calls
HF: Form S/X                        :      0.000u      0.000s      0.000w      2 calls
HF: Guess                           :      0.400u      0.000s      0.243w      2 calls
| SAD Guess                         :      0.367u      0.000s      0.221w      2 calls
HF: Form G                          :      0.000u      0.000s      0.001w     15 calls
| JK: D                             :      0.000u      0.000s      0.000w     15 calls
| JK: USO2AO                        :      0.000u      0.000s      0.000w     15 calls
| JK: JK                            :      0.000u      0.000s      0.000w     15 calls
| | PK computes JK                  :      0.000u      0.000s      0.000w     15 calls
| JK: AO2USO                        :      0.000u      0.000s      0.000w     15 calls
HF: Form F                          :      0.000u      0.000s      0.000w     15 calls
HF: Form D                          :      0.000u      0.000s      0.000w     15 calls
HF: DIIS                            :      0.033u      0.000s      0.007w     13 calls
| DIISManager::add_entry            :      0.000u      0.000s      0.001w     13 calls
| DIISManager::extrapolate          :      0.000u      0.000s      0.001w     13 calls
| | bMatrix setup                   :      0.000u      0.000s      0.000w     13 calls
| | bMatrix pseudoinverse           :      0.000u      0.000s      0.000w     13 calls
| | New vector                      :      0.000u      0.000s      0.000w     13 calls
HF: Form C                          :      0.000u      0.000s      0.000w     13 calls

**************************************************************************************

Host: penguin

Timers On : Fri Jan  3 20:24:27 2020
Timers Off: Fri Jan  3 20:24:33 2020

Wall Time:        5.98 seconds

                                                       Time (seconds)
Module                                       User      System        Wall        Calls
Total PK formation time             :      0.083u      0.000s      0.055w      2 calls
HF: Form core H                     :      0.017u      0.017s      0.001w      2 calls
HF: Form S/X                        :      0.000u      0.000s      0.000w      2 calls
HF: Guess                           :      0.400u      0.000s      0.243w      2 calls
SAD Guess                           :      0.367u      0.000s      0.221w      2 calls
HF: Form G                          :      0.000u      0.000s      0.001w     15 calls
JK: D                               :      0.000u      0.000s      0.000w     15 calls
JK: USO2AO                          :      0.000u      0.000s      0.000w     15 calls
JK: JK                              :      0.000u      0.000s      0.000w     15 calls
PK computes JK                      :      0.000u      0.000s      0.000w     15 calls
JK: AO2USO                          :      0.000u      0.000s      0.000w     15 calls
HF: Form F                          :      0.000u      0.000s      0.000w     15 calls
HF: Form D                          :      0.000u      0.000s      0.000w     15 calls
HF: DIIS                            :      0.000u      0.000s      0.007w     13 calls
DIISManager::add_entry              :      0.000u      0.000s      0.001w     13 calls
DIISManager::extrapolate            :      0.000u      0.000s      0.001w     13 calls
bMatrix setup                       :      0.000u      0.000s      0.000w     13 calls
bMatrix pseudoinverse               :      0.000u      0.000s      0.000w     13 calls
New vector                          :      0.000u      0.000s      0.000w     13 calls
HF: Form C                          :      0.000u      0.000s      0.000w     13 calls

--------------------------------------------------------------------------------------
Total PK formation time             :      0.083u      0.000s      0.055w      2 calls
HF: Form core H                     :      0.017u      0.017s      0.001w      2 calls
HF: Form S/X                        :      0.000u      0.000s      0.000w      2 calls
HF: Guess                           :      0.400u      0.000s      0.243w      2 calls
| SAD Guess                         :      0.367u      0.000s      0.221w      2 calls
HF: Form G                          :      0.000u      0.000s      0.001w     15 calls
| JK: D                             :      0.000u      0.000s      0.000w     15 calls
| JK: USO2AO                        :      0.000u      0.000s      0.000w     15 calls
| JK: JK                            :      0.000u      0.000s      0.000w     15 calls
| | PK computes JK                  :      0.000u      0.000s      0.000w     15 calls
| JK: AO2USO                        :      0.000u      0.000s      0.000w     15 calls
HF: Form F                          :      0.000u      0.000s      0.000w     15 calls
HF: Form D                          :      0.000u      0.000s      0.000w     15 calls
HF: DIIS                            :      0.000u      0.000s      0.007w     13 calls
| DIISManager::add_entry            :      0.000u      0.000s      0.001w     13 calls
| DIISManager::extrapolate          :      0.000u      0.000s      0.001w     13 calls
| | bMatrix setup                   :      0.000u      0.000s      0.000w     13 calls
| | bMatrix pseudoinverse           :      0.000u      0.000s      0.000w     13 calls
| | New vector                      :      0.000u      0.000s      0.000w     13 calls
HF: Form C                          :      0.000u      0.000s      0.000w     13 calls

**************************************************************************************

Host: penguin

Timers On : Fri Jan  3 20:24:56 2020
Timers Off: Fri Jan  3 20:25:03 2020

Wall Time:        7.52 seconds

                                                       Time (seconds)
Module                                       User      System        Wall        Calls
Total PK formation time             :      0.100u      0.000s      0.058w      2 calls
HF: Form core H                     :      0.017u      0.000s      0.001w      2 calls
HF: Form S/X                        :      0.000u      0.000s      0.000w      2 calls
HF: Guess                           :      0.383u      0.000s      0.241w      2 calls
SAD Guess                           :      0.350u      0.000s      0.220w      2 calls
HF: Form G                          :      0.017u      0.000s      0.001w     15 calls
JK: D                               :      0.000u      0.000s      0.000w     15 calls
JK: USO2AO                          :      0.000u      0.000s      0.000w     15 calls
JK: JK                              :      0.017u      0.000s      0.000w     15 calls
PK computes JK                      :      0.017u      0.000s      0.000w     15 calls
JK: AO2USO                          :      0.000u      0.000s      0.000w     15 calls
HF: Form F                          :      0.000u      0.000s      0.000w     15 calls
HF: Form D                          :      0.000u      0.000s      0.000w     15 calls
HF: DIIS                            :      0.000u      0.000s      0.007w     13 calls
DIISManager::add_entry              :      0.000u      0.000s      0.001w     13 calls
DIISManager::extrapolate            :      0.000u      0.000s      0.001w     13 calls
bMatrix setup                       :      0.000u      0.000s      0.000w     13 calls
bMatrix pseudoinverse               :      0.000u      0.000s      0.000w     13 calls
New vector                          :      0.000u      0.000s      0.000w     13 calls
HF: Form C                          :      0.000u      0.000s      0.000w     13 calls

--------------------------------------------------------------------------------------
Total PK formation time             :      0.100u      0.000s      0.058w      2 calls
HF: Form core H                     :      0.017u      0.000s      0.001w      2 calls
HF: Form S/X                        :      0.000u      0.000s      0.000w      2 calls
HF: Guess                           :      0.383u      0.000s      0.241w      2 calls
| SAD Guess                         :      0.350u      0.000s      0.220w      2 calls
HF: Form G                          :      0.017u      0.000s      0.001w     15 calls
| JK: D                             :      0.000u      0.000s      0.000w     15 calls
| JK: USO2AO                        :      0.000u      0.000s      0.000w     15 calls
| JK: JK                            :      0.017u      0.000s      0.000w     15 calls
| | PK computes JK                  :      0.017u      0.000s      0.000w     15 calls
| JK: AO2USO                        :      0.000u      0.000s      0.000w     15 calls
HF: Form F                          :      0.000u      0.000s      0.000w     15 calls
HF: Form D                          :      0.000u      0.000s      0.000w     15 calls
HF: DIIS                            :      0.000u      0.000s      0.007w     13 calls
| DIISManager::add_entry            :      0.000u      0.000s      0.001w     13 calls
| DIISManager::extrapolate          :      0.000u      0.000s      0.001w     13 calls
| | bMatrix setup                   :      0.000u      0.000s      0.000w     13 calls
| | bMatrix pseudoinverse           :      0.000u      0.000s      0.000w     13 calls
| | New vector                      :      0.000u      0.000s      0.000w     13 calls
HF: Form C                          :      0.000u      0.000s      0.000w     13 calls

**************************************************************************************

Host: penguin

Timers On : Fri Jan  3 20:26:16 2020
Timers Off: Fri Jan  3 20:26:24 2020

Wall Time:        7.50 seconds

                                                       Time (seconds)
Module                                       User      System        Wall        Calls
Total PK formation time             :      0.083u      0.000s      0.053w      2 calls
HF: Form core H                     :      0.000u      0.000s      0.001w      2 calls
HF: Form S/X                        :      0.000u      0.000s      0.000w      2 calls
HF: Guess                           :      0.400u      0.017s      0.241w      2 calls
SAD Guess                           :      0.367u      0.017s      0.220w      2 calls
HF: Form G                          :      0.000u      0.000s      0.001w     15 calls
JK: D                               :      0.000u      0.000s      0.000w     15 calls
JK: USO2AO                          :      0.000u      0.000s      0.000w     15 calls
JK: JK                              :      0.000u      0.000s      0.000w     15 calls
PK computes JK                      :      0.000u      0.000s      0.000w     15 calls
JK: AO2USO                          :      0.000u      0.000s      0.000w     15 calls
HF: Form F                          :      0.000u      0.000s      0.000w     15 calls
HF: Form D                          :      0.000u      0.000s      0.000w     15 calls
HF: DIIS                            :      0.017u      0.000s      0.006w     13 calls
DIISManager::add_entry              :      0.000u      0.000s      0.001w     13 calls
DIISManager::extrapolate            :      0.000u      0.000s      0.001w     13 calls
bMatrix setup                       :      0.000u      0.000s      0.000w     13 calls
bMatrix pseudoinverse               :      0.000u      0.000s      0.000w     13 calls
New vector                          :      0.000u      0.000s      0.000w     13 calls
HF: Form C                          :      0.000u      0.000s      0.000w     13 calls

--------------------------------------------------------------------------------------
Total PK formation time             :      0.083u      0.000s      0.053w      2 calls
HF: Form core H                     :      0.000u      0.000s      0.001w      2 calls
HF: Form S/X                        :      0.000u      0.000s      0.000w      2 calls
HF: Guess                           :      0.400u      0.017s      0.241w      2 calls
| SAD Guess                         :      0.367u      0.017s      0.220w      2 calls
HF: Form G                          :      0.000u      0.000s      0.001w     15 calls
| JK: D                             :      0.000u      0.000s      0.000w     15 calls
| JK: USO2AO                        :      0.000u      0.000s      0.000w     15 calls
| JK: JK                            :      0.000u      0.000s      0.000w     15 calls
| | PK computes JK                  :      0.000u      0.000s      0.000w     15 calls
| JK: AO2USO                        :      0.000u      0.000s      0.000w     15 calls
HF: Form F                          :      0.000u      0.000s      0.000w     15 calls
HF: Form D                          :      0.000u      0.000s      0.000w     15 calls
HF: DIIS                            :      0.017u      0.000s      0.006w     13 calls
| DIISManager::add_entry            :      0.000u      0.000s      0.001w     13 calls
| DIISManager::extrapolate          :      0.000u      0.000s      0.001w     13 calls
| | bMatrix setup                   :      0.000u      0.000s      0.000w     13 calls
| | bMatrix pseudoinverse           :      0.000u      0.000s      0.000w     13 calls
| | New vector                      :      0.000u      0.000s      0.000w     13 calls
HF: Form C                          :      0.000u      0.000s      0.000w     13 calls

**************************************************************************************

Host: penguin

Timers On : Fri Jan  3 20:27:22 2020
Timers Off: Fri Jan  3 20:27:29 2020

Wall Time:        7.52 seconds

                                                       Time (seconds)
Module                                       User      System        Wall        Calls
Total PK formation time             :      0.100u      0.000s      0.055w      2 calls
HF: Form core H                     :      0.000u      0.000s      0.001w      2 calls
HF: Form S/X                        :      0.000u      0.000s      0.000w      2 calls
HF: Guess                           :      0.400u      0.000s      0.244w      2 calls
SAD Guess                           :      0.350u      0.000s      0.221w      2 calls
HF: Form G                          :      0.000u      0.000s      0.001w     15 calls
JK: D                               :      0.000u      0.000s      0.000w     15 calls
JK: USO2AO                          :      0.000u      0.000s      0.000w     15 calls
JK: JK                              :      0.000u      0.000s      0.000w     15 calls
PK computes JK                      :      0.000u      0.000s      0.000w     15 calls
JK: AO2USO                          :      0.000u      0.000s      0.000w     15 calls
HF: Form F                          :      0.000u      0.000s      0.000w     15 calls
HF: Form D                          :      0.000u      0.000s      0.000w     15 calls
HF: DIIS                            :      0.000u      0.000s      0.007w     13 calls
DIISManager::add_entry              :      0.000u      0.000s      0.001w     13 calls
DIISManager::extrapolate            :      0.000u      0.000s      0.001w     13 calls
bMatrix setup                       :      0.000u      0.000s      0.000w     13 calls
bMatrix pseudoinverse               :      0.000u      0.000s      0.000w     13 calls
New vector                          :      0.000u      0.000s      0.000w     13 calls
HF: Form C                          :      0.000u      0.000s      0.000w     13 calls

--------------------------------------------------------------------------------------
Total PK formation time             :      0.100u      0.000s      0.055w      2 calls
HF: Form core H                     :      0.000u      0.000s      0.001w      2 calls
HF: Form S/X                        :      0.000u      0.000s      0.000w      2 calls
HF: Guess                           :      0.400u      0.000s      0.244w      2 calls
| SAD Guess                         :      0.350u      0.000s      0.221w      2 calls
HF: Form G                          :      0.000u      0.000s      0.001w     15 calls
| JK: D                             :      0.000u      0.000s      0.000w     15 calls
| JK: USO2AO                        :      0.000u      0.000s      0.000w     15 calls
| JK: JK                            :      0.000u      0.000s      0.000w     15 calls
| | PK computes JK                  :      0.000u      0.000s      0.000w     15 calls
| JK: AO2USO                        :      0.000u      0.000s      0.000w     15 calls
HF: Form F                          :      0.000u      0.000s      0.000w     15 calls
HF: Form D                          :      0.000u      0.000s      0.000w     15 calls
HF: DIIS                            :      0.000u      0.000s      0.007w     13 calls
| DIISManager::add_entry            :      0.000u      0.000s      0.001w     13 calls
| DIISManager::extrapolate          :      0.000u      0.000s      0.001w     13 calls
| | bMatrix setup                   :      0.000u      0.000s      0.000w     13 calls
| | bMatrix pseudoinverse           :      0.000u      0.000s      0.000w     13 calls
| | New vector                      :      0.000u      0.000s      0.000w     13 calls
HF: Form C                          :      0.000u      0.000s      0.000w     13 calls

[...]
| | New vector                      :      0.000u      0.000s      0.000w      2 calls
HF: Form C                          :      0.000u      0.000s      0.000w      2 calls

**************************************************************************************

Host: penguin

Timers On : Sat Jan  4 16:12:42 2020
Timers Off: Sat Jan  4 16:12:46 2020

Wall Time:        4.98 seconds

                                                       Time (seconds)
Module                                       User      System        Wall        Calls
Total PK formation time             :      0.050u      0.000s      0.027w      1 calls
HF: Form core H                     :      0.000u      0.017s      0.002w      1 calls
HF: Form S/X                        :      0.000u      0.000s      0.000w      1 calls
HF: Guess                           :      0.150u      0.000s      0.085w      1 calls
SAD Guess                           :      0.133u      0.000s      0.074w      1 calls
HF: Form G                          :      0.000u      0.000s      0.000w      3 calls
JK: D                               :      0.000u      0.000s      0.000w      3 calls
JK: USO2AO                          :      0.000u      0.000s      0.000w      3 calls
JK: JK                              :      0.000u      0.000s      0.000w      3 calls
PK computes JK                      :      0.000u      0.000s      0.000w      3 calls
JK: AO2USO                          :      0.000u      0.000s      0.000w      3 calls
HF: Form F                          :      0.000u      0.000s      0.000w      3 calls
HF: Form D                          :      0.000u      0.000s      0.000w      3 calls
HF: DIIS                            :      0.000u      0.000s      0.001w      2 calls
DIISManager::add_entry              :      0.000u      0.000s      0.000w      2 calls
DIISManager::extrapolate            :      0.000u      0.000s      0.000w      2 calls
bMatrix setup                       :      0.000u      0.000s      0.000w      2 calls
bMatrix pseudoinverse               :      0.000u      0.000s      0.000w      2 calls
New vector                          :      0.000u      0.000s      0.000w      2 calls
HF: Form C                          :      0.000u      0.000s      0.000w      2 calls

--------------------------------------------------------------------------------------
Total PK formation time             :      0.050u      0.000s      0.027w      1 calls
HF: Form core H                     :      0.000u      0.017s      0.002w      1 calls
HF: Form S/X                        :      0.000u      0.000s      0.000w      1 calls
HF: Guess                           :      0.150u      0.000s      0.085w      1 calls
| SAD Guess                         :      0.133u      0.000s      0.074w      1 calls
HF: Form G                          :      0.000u      0.000s      0.000w      3 calls
| JK: D                             :      0.000u      0.000s      0.000w      3 calls
| JK: USO2AO                        :      0.000u      0.000s      0.000w      3 calls
| JK: JK                            :      0.000u      0.000s      0.000w      3 calls
| | PK computes JK                  :      0.000u      0.000s      0.000w      3 calls
| JK: AO2USO                        :      0.000u      0.000s      0.000w      3 calls
HF: Form F                          :      0.000u      0.000s      0.000w      3 calls
HF: Form D                          :      0.000u      0.000s      0.000w      3 calls
HF: DIIS                            :      0.000u      0.000s      0.001w      2 calls
| DIISManager::add_entry            :      0.000u      0.000s      0.000w      2 calls
| DIISManager::extrapolate          :      0.000u      0.000s      0.000w      2 calls
| | bMatrix setup                   :      0.000u      0.000s      0.000w      2 calls
| | bMatrix pseudoinverse           :      0.000u      0.000s      0.000w      2 calls
| | New vector                      :      0.000u      0.000s      0.000w      2 calls
HF: Form C                          :      0.000u      0.000s      0.000w      2 calls

**************************************************************************************

Host: penguin

Timers On : Sat Jan  4 16:13:50 2020
Timers Off: Sat Jan  4 16:13:55 2020

Wall Time:        5.20 seconds

                                                       Time (seconds)
Module                                       User      System        Wall        Calls
Total PK formation time             :      0.050u      0.000s      0.026w      1 calls
HF: Form core H                     :      0.000u      0.000s      0.005w      1 calls
HF: Form S/X                        :      0.000u      0.000s      0.000w      1 calls
HF: Guess                           :      0.150u      0.000s      0.089w      1 calls
SAD Guess                           :      0.133u      0.000s      0.077w      1 calls
HF: Form G                          :      0.000u      0.000s      0.000w      3 calls
JK: D                               :      0.000u      0.000s      0.000w      3 calls
JK: USO2AO                          :      0.000u      0.000s      0.000w      3 calls
JK: JK                              :      0.000u      0.000s      0.000w      3 calls
PK computes JK                      :      0.000u      0.000s      0.000w      3 calls
JK: AO2USO                          :      0.000u      0.000s      0.000w      3 calls
HF: Form F                          :      0.000u      0.000s      0.000w      3 calls
HF: Form D                          :      0.000u      0.000s      0.000w      3 calls
HF: DIIS                            :      0.000u      0.000s      0.001w      2 calls
DIISManager::add_entry              :      0.000u      0.000s      0.000w      2 calls
DIISManager::extrapolate            :      0.000u      0.000s      0.000w      2 calls
bMatrix setup                       :      0.000u      0.000s      0.000w      2 calls
bMatrix pseudoinverse               :      0.000u      0.000s      0.000w      2 calls
New vector                          :      0.000u      0.000s      0.000w      2 calls
HF: Form C                          :      0.000u      0.000s      0.000w      2 calls

--------------------------------------------------------------------------------------
Total PK formation time             :      0.050u      0.000s      0.026w      1 calls
HF: Form core H                     :      0.000u      0.000s      0.005w      1 calls
HF: Form S/X                        :      0.000u      0.000s      0.000w      1 calls
HF: Guess                           :      0.150u      0.000s      0.089w      1 calls
| SAD Guess                         :      0.133u      0.000s      0.077w      1 calls
HF: Form G                          :      0.000u      0.000s      0.000w      3 calls
| JK: D                             :      0.000u      0.000s      0.000w      3 calls
| JK: USO2AO                        :      0.000u      0.000s      0.000w      3 calls
| JK: JK                            :      0.000u      0.000s      0.000w      3 calls
| | PK computes JK                  :      0.000u      0.000s      0.000w      3 calls
| JK: AO2USO                        :      0.000u      0.000s      0.000w      3 calls
HF: Form F                          :      0.000u      0.000s      0.000w      3 calls
HF: Form D                          :      0.000u      0.000s      0.000w      3 calls
HF: DIIS                            :      0.000u      0.000s      0.001w      2 calls
| DIISManager::add_entry            :      0.000u      0.000s      0.000w      2 calls
| DIISManager::extrapolate          :      0.000u      0.000s      0.000w      2 calls
| | bMatrix setup                   :      0.000u      0.000s      0.000w      2 calls
| | bMatrix pseudoinverse           :      0.000u      0.000s      0.000w      2 calls
| | New vector                      :      0.000u      0.000s      0.000w      2 calls
HF: Form C                          :      0.000u      0.000s      0.000w      2 calls

**************************************************************************************

Host: penguin

Timers On : Sat Jan  4 16:14:30 2020
Timers Off: Sat Jan  4 16:14:35 2020

Wall Time:        4.88 seconds

                                                       Time (seconds)
Module                                       User      System        Wall        Calls
Total PK formation time             :      0.050u      0.000s      0.027w      1 calls
HF: Form core H                     :      0.000u      0.000s      0.001w      1 calls
HF: Form S/X                        :      0.000u      0.000s      0.000w      1 calls
HF: Guess                           :      0.133u      0.000s      0.085w      1 calls
SAD Guess                           :      0.117u      0.000s      0.073w      1 calls
HF: Form G                          :      0.000u      0.000s      0.000w      3 calls
JK: D                               :      0.000u      0.000s      0.000w      3 calls
JK: USO2AO                          :      0.000u      0.000s      0.000w      3 calls
JK: JK                              :      0.000u      0.000s      0.000w      3 calls
PK computes JK                      :      0.000u      0.000s      0.000w      3 calls
JK: AO2USO                          :      0.000u      0.000s      0.000w      3 calls
HF: Form F                          :      0.000u      0.000s      0.000w      3 calls
HF: Form D                          :      0.000u      0.000s      0.000w      3 calls
HF: DIIS                            :      0.000u      0.000s      0.002w      2 calls
DIISManager::add_entry              :      0.000u      0.000s      0.000w      2 calls
DIISManager::extrapolate            :      0.000u      0.000s      0.000w      2 calls
bMatrix setup                       :      0.000u      0.000s      0.000w      2 calls
bMatrix pseudoinverse               :      0.000u      0.000s      0.000w      2 calls
New vector                          :      0.000u      0.000s      0.000w      2 calls
HF: Form C                          :      0.000u      0.000s      0.000w      2 calls

--------------------------------------------------------------------------------------
Total PK formation time             :      0.050u      0.000s      0.027w      1 calls
HF: Form core H                     :      0.000u      0.000s      0.001w      1 calls
HF: Form S/X                        :      0.000u      0.000s      0.000w      1 calls
HF: Guess                           :      0.133u      0.000s      0.085w      1 calls
| SAD Guess                         :      0.117u      0.000s      0.073w      1 calls
HF: Form G                          :      0.000u      0.000s      0.000w      3 calls
| JK: D                             :      0.000u      0.000s      0.000w      3 calls
| JK: USO2AO                        :      0.000u      0.000s      0.000w      3 calls
| JK: JK                            :      0.000u      0.000s      0.000w      3 calls
| | PK computes JK                  :      0.000u      0.000s      0.000w      3 calls
| JK: AO2USO                        :      0.000u      0.000s      0.000w      3 calls
HF: Form F                          :      0.000u      0.000s      0.000w      3 calls
HF: Form D                          :      0.000u      0.000s      0.000w      3 calls
HF: DIIS                            :      0.000u      0.000s      0.002w      2 calls
| DIISManager::add_entry            :      0.000u      0.000s      0.000w      2 calls
| DIISManager::extrapolate          :      0.000u      0.000s      0.000w      2 calls
| | bMatrix setup                   :      0.000u      0.000s      0.000w      2 calls
| | bMatrix pseudoinverse           :      0.000u      0.000s      0.000w      2 calls
| | New vector                      :      0.000u      0.000s      0.000w      2 calls
HF: Form C                          :      0.000u      0.000s      0.000w      2 calls

**************************************************************************************

Host: penguin

Timers On : Sat Jan  4 16:15:29 2020
Timers Off: Sat Jan  4 16:15:34 2020

Wall Time:        4.87 seconds

                                                       Time (seconds)
Module                                       User      System        Wall        Calls
Total PK formation time             :      0.033u      0.000s      0.027w      1 calls
HF: Form core H                     :      0.000u      0.017s      0.001w      1 calls
HF: Form S/X                        :      0.000u      0.000s      0.000w      1 calls
HF: Guess                           :      0.150u      0.000s      0.085w      1 calls
SAD Guess                           :      0.117u      0.000s      0.074w      1 calls
HF: Form G                          :      0.000u      0.000s      0.000w      3 calls
JK: D                               :      0.000u      0.000s      0.000w      3 calls
JK: USO2AO                          :      0.000u      0.000s      0.000w      3 calls
JK: JK                              :      0.000u      0.000s      0.000w      3 calls
PK computes JK                      :      0.000u      0.000s      0.000w      3 calls
JK: AO2USO                          :      0.000u      0.000s      0.000w      3 calls
HF: Form F                          :      0.000u      0.000s      0.000w      3 calls
HF: Form D                          :      0.000u      0.000s      0.000w      3 calls
HF: DIIS                            :      0.000u      0.000s      0.001w      2 calls
DIISManager::add_entry              :      0.000u      0.000s      0.000w      2 calls
DIISManager::extrapolate            :      0.000u      0.000s      0.000w      2 calls
bMatrix setup                       :      0.000u      0.000s      0.000w      2 calls
bMatrix pseudoinverse               :      0.000u      0.000s      0.000w      2 calls
New vector                          :      0.000u      0.000s      0.000w      2 calls
HF: Form C                          :      0.000u      0.000s      0.000w      2 calls

--------------------------------------------------------------------------------------
Total PK formation time             :      0.033u      0.000s      0.027w      1 calls
HF: Form core H                     :      0.000u      0.017s      0.001w      1 calls
HF: Form S/X                        :      0.000u      0.000s      0.000w      1 calls
HF: Guess                           :      0.150u      0.000s      0.085w      1 calls
| SAD Guess                         :      0.117u      0.000s      0.074w      1 calls
HF: Form G                          :      0.000u      0.000s      0.000w      3 calls
| JK: D                             :      0.000u      0.000s      0.000w      3 calls
| JK: USO2AO                        :      0.000u      0.000s      0.000w      3 calls
| JK: JK                            :      0.000u      0.000s      0.000w      3 calls
| | PK computes JK                  :      0.000u      0.000s      0.000w      3 calls
| JK: AO2USO                        :      0.000u      0.000s      0.000w      3 calls
HF: Form F                          :      0.000u      0.000s      0.000w      3 calls
HF: Form D                          :      0.000u      0.000s      0.000w      3 calls
HF: DIIS                            :      0.000u      0.000s      0.001w      2 calls
| DIISManager::add_entry            :      0.000u      0.000s      0.000w      2 calls
| DIISManager::extrapolate          :      0.000u      0.000s      0.000w      2 calls
| | bMatrix setup                   :      0.000u      0.000s      0.000w      2 calls
| | bMatrix pseudoinverse           :      0.000u      0.000s      0.000w      2 calls
| | New vector                      :      0.000u      0.000s      0.000w      2 calls
HF: Form C                          :      0.000u      0.000s      0.000w      2 calls

**************************************************************************************

Host: penguin

Timers On : Sat Jan  4 16:16:20 2020
Timers Off: Sat Jan  4 16:16:23 2020

Wall Time:        3.42 seconds

                                                       Time (seconds)
Module                                       User      System        Wall        Calls
Total PK formation time             :      0.033u      0.000s      0.026w      1 calls
HF: Form core H                     :      0.000u      0.000s      0.001w      1 calls
HF: Form S/X                        :      0.000u      0.000s      0.000w      1 calls
HF: Guess                           :      0.167u      0.000s      0.095w      1 calls
SAD Guess                           :      0.150u      0.000s      0.084w      1 calls
HF: Form G                          :      0.000u      0.000s      0.000w      3 calls
JK: D                               :      0.000u      0.000s      0.000w      3 calls
JK: USO2AO                          :      0.000u      0.000s      0.000w      3 calls
JK: JK                              :      0.000u      0.000s      0.000w      3 calls
PK computes JK                      :      0.000u      0.000s      0.000w      3 calls
JK: AO2USO                          :      0.000u      0.000s      0.000w      3 calls
HF: Form F                          :      0.000u      0.000s      0.000w      3 calls
HF: Form D                          :      0.000u      0.000s      0.000w      3 calls
HF: DIIS                            :      0.000u      0.000s      0.001w      2 calls
DIISManager::add_entry              :      0.000u      0.000s      0.000w      2 calls
DIISManager::extrapolate            :      0.000u      0.000s      0.000w      2 calls
bMatrix setup                       :      0.000u      0.000s      0.000w      2 calls
bMatrix pseudoinverse               :      0.000u      0.000s      0.000w      2 calls
New vector                          :      0.000u      0.000s      0.000w      2 calls
HF: Form C                          :      0.017u      0.000s      0.000w      2 calls

--------------------------------------------------------------------------------------
Total PK formation time             :      0.033u      0.000s      0.026w      1 calls
HF: Form core H                     :      0.000u      0.000s      0.001w      1 calls
HF: Form S/X                        :      0.000u      0.000s      0.000w      1 calls
HF: Guess                           :      0.167u      0.000s      0.095w      1 calls
| SAD Guess                         :      0.150u      0.000s      0.084w      1 calls
HF: Form G                          :      0.000u      0.000s      0.000w      3 calls
| JK: D                             :      0.000u      0.000s      0.000w      3 calls
| JK: USO2AO                        :      0.000u      0.000s      0.000w      3 calls
| JK: JK                            :      0.000u      0.000s      0.000w      3 calls
| | PK computes JK                  :      0.000u      0.000s      0.000w      3 calls
| JK: AO2USO                        :      0.000u      0.000s      0.000w      3 calls
HF: Form F                          :      0.000u      0.000s      0.000w      3 calls
HF: Form D                          :      0.000u      0.000s      0.000w      3 calls
HF: DIIS                            :      0.000u      0.000s      0.001w      2 calls
| DIISManager::add_entry            :      0.000u      0.000s      0.000w      2 calls
| DIISManager::extrapolate          :      0.000u      0.000s      0.000w      2 calls
| | bMatrix setup                   :      0.000u      0.000s      0.000w      2 calls
| | bMatrix pseudoinverse           :      0.000u      0.000s      0.000w      2 calls
| | New vector                      :      0.000u      0.000s      0.000w      2 calls
HF: Form C                          :      0.017u      0.000s      0.000w      2 calls

**************************************************************************************
