
Host: penguin

Timers On : Sun Jan  5 07:44:35 2020
Timers Off: Sun Jan  5 07:45:45 2020

Wall Time:       69.89 seconds

                                                       Time (seconds)
Module                                       User      System        Wall        Calls
Total PK formation time             :      0.283u      0.000s      0.152w      5 calls
HF: Form core H                     :      0.000u      0.000s      0.003w      5 calls
HF: Form S/X                        :      0.000u      0.000s      0.001w      5 calls
HF: Guess                           :      1.133u      0.000s      0.689w      5 calls
SAD Guess                           :      1.050u      0.000s      0.628w      5 calls
HF: Form G                          :      0.000u      0.000s      0.002w     33 calls
JK: D                               :      0.000u      0.000s      0.000w     33 calls
JK: USO2AO                          :      0.000u      0.000s      0.000w     33 calls
JK: JK                              :      0.000u      0.000s      0.000w     33 calls
PK computes JK                      :      0.000u      0.000s      0.000w     33 calls
JK: AO2USO                          :      0.000u      0.000s      0.000w     33 calls
HF: Form F                          :      0.000u      0.000s      0.000w     33 calls
HF: Form D                          :      0.000u      0.000s      0.000w     33 calls
HF: DIIS                            :      0.017u      0.017s      0.018w     28 calls
DIISManager::add_entry              :      0.000u      0.017s      0.002w     28 calls
DIISManager::extrapolate            :      0.000u      0.000s      0.003w     28 calls
bMatrix setup                       :      0.000u      0.000s      0.001w     28 calls
bMatrix pseudoinverse               :      0.000u      0.000s      0.001w     28 calls
New vector                          :      0.000u      0.000s      0.001w     28 calls
HF: Form C                          :      0.017u      0.000s      0.001w     28 calls

--------------------------------------------------------------------------------------
Total PK formation time             :      0.283u      0.000s      0.152w      5 calls
HF: Form core H                     :      0.000u      0.000s      0.003w      5 calls
HF: Form S/X                        :      0.000u      0.000s      0.001w      5 calls
HF: Guess                           :      1.133u      0.000s      0.689w      5 calls
| SAD Guess                         :      1.050u      0.000s      0.628w      5 calls
HF: Form G                          :      0.000u      0.000s      0.002w     33 calls
| JK: D                             :      0.000u      0.000s      0.000w     33 calls
| JK: USO2AO                        :      0.000u      0.000s      0.000w     33 calls
| JK: JK                            :      0.000u      0.000s      0.000w     33 calls
| | PK computes JK                  :      0.000u      0.000s      0.000w     33 calls
| JK: AO2USO                        :      0.000u      0.000s      0.000w     33 calls
HF: Form F                          :      0.000u      0.000s      0.000w     33 calls
HF: Form D                          :      0.000u      0.000s      0.000w     33 calls
HF: DIIS                            :      0.017u      0.017s      0.018w     28 calls
| DIISManager::add_entry            :      0.000u      0.017s      0.002w     28 calls
| DIISManager::extrapolate          :      0.000u      0.000s      0.003w     28 calls
| | bMatrix setup                   :      0.000u      0.000s      0.001w     28 calls
| | bMatrix pseudoinverse           :      0.000u      0.000s      0.001w     28 calls
| | New vector                      :      0.000u      0.000s      0.001w     28 calls
HF: Form C                          :      0.017u      0.000s      0.001w     28 calls

**************************************************************************************

Host: penguin

Timers On : Sun Jan  5 07:46:50 2020
Timers Off: Sun Jan  5 07:47:53 2020

Wall Time:       63.31 seconds

                                                       Time (seconds)
Module                                       User      System        Wall        Calls
Total PK formation time             :      0.150u      0.000s      0.089w      3 calls
HF: Form core H                     :      0.000u      0.000s      0.002w      3 calls
HF: Form S/X                        :      0.000u      0.000s      0.000w      3 calls
HF: Guess                           :      0.600u      0.000s      0.359w      3 calls
SAD Guess                           :      0.550u      0.000s      0.321w      3 calls
HF: Form G                          :      0.000u      0.000s      0.001w     18 calls
JK: D                               :      0.000u      0.000s      0.000w     18 calls
JK: USO2AO                          :      0.000u      0.000s      0.000w     18 calls
JK: JK                              :      0.000u      0.000s      0.000w     18 calls
PK computes JK                      :      0.000u      0.000s      0.000w     18 calls
JK: AO2USO                          :      0.000u      0.000s      0.000w     18 calls
HF: Form F                          :      0.000u      0.000s      0.000w     18 calls
HF: Form D                          :      0.000u      0.000s      0.000w     18 calls
HF: DIIS                            :      0.017u      0.000s      0.008w     15 calls
DIISManager::add_entry              :      0.000u      0.000s      0.001w     15 calls
DIISManager::extrapolate            :      0.000u      0.000s      0.001w     15 calls
bMatrix setup                       :      0.000u      0.000s      0.000w     15 calls
bMatrix pseudoinverse               :      0.000u      0.000s      0.000w     15 calls
New vector                          :      0.000u      0.000s      0.000w     15 calls
HF: Form C                          :      0.000u      0.000s      0.000w     15 calls

--------------------------------------------------------------------------------------
Total PK formation time             :      0.150u      0.000s      0.089w      3 calls
HF: Form core H                     :      0.000u      0.000s      0.002w      3 calls
HF: Form S/X                        :      0.000u      0.000s      0.000w      3 calls
HF: Guess                           :      0.600u      0.000s      0.359w      3 calls
| SAD Guess                         :      0.550u      0.000s      0.321w      3 calls
HF: Form G                          :      0.000u      0.000s      0.001w     18 calls
| JK: D                             :      0.000u      0.000s      0.000w     18 calls
| JK: USO2AO                        :      0.000u      0.000s      0.000w     18 calls
| JK: JK                            :      0.000u      0.000s      0.000w     18 calls
| | PK computes JK                  :      0.000u      0.000s      0.000w     18 calls
| JK: AO2USO                        :      0.000u      0.000s      0.000w     18 calls
HF: Form F                          :      0.000u      0.000s      0.000w     18 calls
HF: Form D                          :      0.000u      0.000s      0.000w     18 calls
HF: DIIS                            :      0.017u      0.000s      0.008w     15 calls
| DIISManager::add_entry            :      0.000u      0.000s      0.001w     15 calls
| DIISManager::extrapolate          :      0.000u      0.000s      0.001w     15 calls
| | bMatrix setup                   :      0.000u      0.000s      0.000w     15 calls
| | bMatrix pseudoinverse           :      0.000u      0.000s      0.000w     15 calls
| | New vector                      :      0.000u      0.000s      0.000w     15 calls
HF: Form C                          :      0.000u      0.000s      0.000w     15 calls

**************************************************************************************

Host: penguin

Timers On : Sun Jan  5 07:55:29 2020
Timers Off: Sun Jan  5 07:56:37 2020

Wall Time:       67.87 seconds

                                                       Time (seconds)
Module                                       User      System        Wall        Calls
Total PK formation time             :      0.217u      0.000s      0.126w      4 calls
HF: Form core H                     :      0.000u      0.000s      0.004w      4 calls
HF: Form S/X                        :      0.000u      0.000s      0.001w      4 calls
HF: Guess                           :      0.917u      0.000s      0.552w      4 calls
SAD Guess                           :      0.850u      0.000s      0.501w      4 calls
HF: Form G                          :      0.000u      0.000s      0.002w     30 calls
JK: D                               :      0.000u      0.000s      0.000w     30 calls
JK: USO2AO                          :      0.000u      0.000s      0.000w     30 calls
JK: JK                              :      0.000u      0.000s      0.000w     30 calls
PK computes JK                      :      0.000u      0.000s      0.000w     30 calls
JK: AO2USO                          :      0.000u      0.000s      0.000w     30 calls
HF: Form F                          :      0.000u      0.000s      0.000w     30 calls
HF: Form D                          :      0.000u      0.000s      0.000w     30 calls
HF: DIIS                            :      0.050u      0.000s      0.018w     26 calls
DIISManager::add_entry              :      0.000u      0.000s      0.002w     26 calls
DIISManager::extrapolate            :      0.017u      0.000s      0.004w     26 calls
bMatrix setup                       :      0.017u      0.000s      0.001w     26 calls
bMatrix pseudoinverse               :      0.000u      0.000s      0.002w     26 calls
New vector                          :      0.000u      0.000s      0.001w     26 calls
HF: Form C                          :      0.000u      0.000s      0.001w     26 calls

--------------------------------------------------------------------------------------
Total PK formation time             :      0.217u      0.000s      0.126w      4 calls
HF: Form core H                     :      0.000u      0.000s      0.004w      4 calls
HF: Form S/X                        :      0.000u      0.000s      0.001w      4 calls
HF: Guess                           :      0.917u      0.000s      0.552w      4 calls
| SAD Guess                         :      0.850u      0.000s      0.501w      4 calls
HF: Form G                          :      0.000u      0.000s      0.002w     30 calls
| JK: D                             :      0.000u      0.000s      0.000w     30 calls
| JK: USO2AO                        :      0.000u      0.000s      0.000w     30 calls
| JK: JK                            :      0.000u      0.000s      0.000w     30 calls
| | PK computes JK                  :      0.000u      0.000s      0.000w     30 calls
| JK: AO2USO                        :      0.000u      0.000s      0.000w     30 calls
HF: Form F                          :      0.000u      0.000s      0.000w     30 calls
HF: Form D                          :      0.000u      0.000s      0.000w     30 calls
HF: DIIS                            :      0.050u      0.000s      0.018w     26 calls
| DIISManager::add_entry            :      0.000u      0.000s      0.002w     26 calls
| DIISManager::extrapolate          :      0.017u      0.000s      0.004w     26 calls
| | bMatrix setup                   :      0.017u      0.000s      0.001w     26 calls
| | bMatrix pseudoinverse           :      0.000u      0.000s      0.002w     26 calls
| | New vector                      :      0.000u      0.000s      0.001w     26 calls
HF: Form C                          :      0.000u      0.000s      0.001w     26 calls

**************************************************************************************

Host: penguin

Timers On : Sun Jan  5 13:28:36 2020
Timers Off: Sun Jan  5 13:28:42 2020

Wall Time:        6.67 seconds

                                                       Time (seconds)
Module                                       User      System        Wall        Calls
Total PK formation time             :      0.100u      0.000s      0.058w      2 calls
HF: Form core H                     :      0.000u      0.000s      0.003w      2 calls
HF: Form S/X                        :      0.000u      0.000s      0.001w      2 calls
HF: Guess                           :      0.433u      0.017s      0.264w      2 calls
SAD Guess                           :      0.383u      0.017s      0.241w      2 calls
HF: Form G                          :      0.000u      0.000s      0.001w     15 calls
JK: D                               :      0.000u      0.000s      0.000w     15 calls
JK: USO2AO                          :      0.000u      0.000s      0.000w     15 calls
JK: JK                              :      0.000u      0.000s      0.000w     15 calls
PK computes JK                      :      0.000u      0.000s      0.000w     15 calls
JK: AO2USO                          :      0.000u      0.000s      0.000w     15 calls
HF: Form F                          :      0.000u      0.000s      0.000w     15 calls
HF: Form D                          :      0.000u      0.000s      0.000w     15 calls
HF: DIIS                            :      0.000u      0.000s      0.007w     13 calls
DIISManager::add_entry              :      0.000u      0.000s      0.001w     13 calls
DIISManager::extrapolate            :      0.000u      0.000s      0.001w     13 calls
bMatrix setup                       :      0.000u      0.000s      0.001w     13 calls
bMatrix pseudoinverse               :      0.000u      0.000s      0.000w     13 calls
New vector                          :      0.000u      0.000s      0.000w     13 calls
HF: Form C                          :      0.000u      0.000s      0.000w     13 calls

--------------------------------------------------------------------------------------
Total PK formation time             :      0.100u      0.000s      0.058w      2 calls
HF: Form core H                     :      0.000u      0.000s      0.003w      2 calls
HF: Form S/X                        :      0.000u      0.000s      0.001w      2 calls
HF: Guess                           :      0.433u      0.017s      0.264w      2 calls
| SAD Guess                         :      0.383u      0.017s      0.241w      2 calls
HF: Form G                          :      0.000u      0.000s      0.001w     15 calls
| JK: D                             :      0.000u      0.000s      0.000w     15 calls
| JK: USO2AO                        :      0.000u      0.000s      0.000w     15 calls
| JK: JK                            :      0.000u      0.000s      0.000w     15 calls
| | PK computes JK                  :      0.000u      0.000s      0.000w     15 calls
| JK: AO2USO                        :      0.000u      0.000s      0.000w     15 calls
HF: Form F                          :      0.000u      0.000s      0.000w     15 calls
HF: Form D                          :      0.000u      0.000s      0.000w     15 calls
HF: DIIS                            :      0.000u      0.000s      0.007w     13 calls
| DIISManager::add_entry            :      0.000u      0.000s      0.001w     13 calls
| DIISManager::extrapolate          :      0.000u      0.000s      0.001w     13 calls
| | bMatrix setup                   :      0.000u      0.000s      0.001w     13 calls
| | bMatrix pseudoinverse           :      0.000u      0.000s      0.000w     13 calls
| | New vector                      :      0.000u      0.000s      0.000w     13 calls
HF: Form C                          :      0.000u      0.000s      0.000w     13 calls

**************************************************************************************

Host: penguin

Timers On : Sun Jan  5 13:29:03 2020
Timers Off: Sun Jan  5 13:29:11 2020

Wall Time:        8.10 seconds

                                                       Time (seconds)
Module                                       User      System        Wall        Calls
Total PK formation time             :      0.133u      0.000s      0.088w      3 calls
HF: Form core H                     :      0.000u      0.000s      0.002w      3 calls
HF: Form S/X                        :      0.033u      0.000s      0.002w      3 calls
HF: Guess                           :      0.700u      0.000s      0.437w      3 calls
SAD Guess                           :      0.650u      0.000s      0.400w      3 calls
HF: Form G                          :      0.000u      0.000s      0.001w     30 calls
JK: D                               :      0.000u      0.000s      0.000w     30 calls
JK: USO2AO                          :      0.000u      0.000s      0.000w     30 calls
JK: JK                              :      0.000u      0.000s      0.000w     30 calls
PK computes JK                      :      0.000u      0.000s      0.000w     30 calls
JK: AO2USO                          :      0.000u      0.000s      0.000w     30 calls
HF: Form F                          :      0.000u      0.000s      0.000w     30 calls
HF: Form D                          :      0.000u      0.000s      0.000w     30 calls
HF: DIIS                            :      0.033u      0.000s      0.014w     27 calls
DIISManager::add_entry              :      0.000u      0.000s      0.001w     27 calls
DIISManager::extrapolate            :      0.017u      0.000s      0.003w     27 calls
bMatrix setup                       :      0.000u      0.000s      0.001w     27 calls
bMatrix pseudoinverse               :      0.000u      0.000s      0.001w     27 calls
New vector                          :      0.017u      0.000s      0.001w     27 calls
HF: Form C                          :      0.000u      0.000s      0.001w     27 calls

--------------------------------------------------------------------------------------
Total PK formation time             :      0.133u      0.000s      0.088w      3 calls
HF: Form core H                     :      0.000u      0.000s      0.002w      3 calls
HF: Form S/X                        :      0.033u      0.000s      0.002w      3 calls
HF: Guess                           :      0.700u      0.000s      0.437w      3 calls
| SAD Guess                         :      0.650u      0.000s      0.400w      3 calls
HF: Form G                          :      0.000u      0.000s      0.001w     30 calls
| JK: D                             :      0.000u      0.000s      0.000w     30 calls
| JK: USO2AO                        :      0.000u      0.000s      0.000w     30 calls
| JK: JK                            :      0.000u      0.000s      0.000w     30 calls
| | PK computes JK                  :      0.000u      0.000s      0.000w     30 calls
| JK: AO2USO                        :      0.000u      0.000s      0.000w     30 calls
HF: Form F                          :      0.000u      0.000s      0.000w     30 calls
HF: Form D                          :      0.000u      0.000s      0.000w     30 calls
HF: DIIS                            :      0.033u      0.000s      0.014w     27 calls
| DIISManager::add_entry            :      0.000u      0.000s      0.001w     27 calls
| DIISManager::extrapolate          :      0.017u      0.000s      0.003w     27 calls
| | bMatrix setup                   :      0.000u      0.000s      0.001w     27 calls
| | bMatrix pseudoinverse           :      0.000u      0.000s      0.001w     27 calls
| | New vector                      :      0.017u      0.000s      0.001w     27 calls
HF: Form C                          :      0.000u      0.000s      0.001w     27 calls

**************************************************************************************

Host: penguin

Timers On : Sun Jan  5 13:38:32 2020
Timers Off: Sun Jan  5 13:38:40 2020

Wall Time:        7.76 seconds

                                                       Time (seconds)
Module                                       User      System        Wall        Calls
DFH: sparsity prep                  :      0.033u      0.000s      0.030w      2 calls
DFH: initialize()                   :      0.167u      0.000s      0.126w      2 calls
DFH: AO Construction                :      0.000u      0.000s      0.002w      2 calls
DFH: AO-Met. Contraction            :      0.000u      0.000s      0.000w      2 calls
HF: Form core H                     :      0.017u      0.000s      0.001w      2 calls
HF: Form S/X                        :      0.000u      0.000s      0.000w      2 calls
HF: Guess                           :      0.567u      0.000s      0.343w      2 calls
SAD Guess                           :      0.533u      0.000s      0.318w      2 calls
HF: Form G                          :      0.000u      0.000s      0.002w     17 calls
JK: D                               :      0.000u      0.000s      0.000w     17 calls
JK: USO2AO                          :      0.000u      0.000s      0.000w     17 calls
JK: JK                              :      0.000u      0.000s      0.001w     17 calls
DFH: compute_JK()                   :      0.000u      0.000s      0.001w     17 calls
DFH: Grabbing AOs                   :      0.000u      0.000s      0.000w     17 calls
DFH: compute_J                      :      0.000u      0.000s      0.000w     17 calls
DFH: compute_K                      :      0.000u      0.000s      0.000w     17 calls
JK: AO2USO                          :      0.000u      0.000s      0.000w     17 calls
HF: Form F                          :      0.000u      0.000s      0.000w     17 calls
HF: Form D                          :      0.000u      0.000s      0.000w     17 calls
HF: DIIS                            :      0.017u      0.000s      0.009w     15 calls
DIISManager::add_entry              :      0.000u      0.000s      0.001w     15 calls
DIISManager::extrapolate            :      0.000u      0.000s      0.001w     15 calls
bMatrix setup                       :      0.000u      0.000s      0.000w     15 calls
bMatrix pseudoinverse               :      0.000u      0.000s      0.000w     15 calls
New vector                          :      0.000u      0.000s      0.000w     15 calls
HF: Form C                          :      0.000u      0.000s      0.001w     15 calls

--------------------------------------------------------------------------------------
DFH: sparsity prep                  :      0.033u      0.000s      0.030w      2 calls
DFH: initialize()                   :      0.167u      0.000s      0.126w      2 calls
| DFH: AO Construction              :      0.000u      0.000s      0.002w      2 calls
| DFH: AO-Met. Contraction          :      0.000u      0.000s      0.000w      2 calls
HF: Form core H                     :      0.017u      0.000s      0.001w      2 calls
HF: Form S/X                        :      0.000u      0.000s      0.000w      2 calls
HF: Guess                           :      0.567u      0.000s      0.343w      2 calls
| SAD Guess                         :      0.533u      0.000s      0.318w      2 calls
HF: Form G                          :      0.000u      0.000s      0.002w     17 calls
| JK: D                             :      0.000u      0.000s      0.000w     17 calls
| JK: USO2AO                        :      0.000u      0.000s      0.000w     17 calls
| JK: JK                            :      0.000u      0.000s      0.001w     17 calls
| | DFH: compute_JK()               :      0.000u      0.000s      0.001w     17 calls
| | | DFH: Grabbing AOs             :      0.000u      0.000s      0.000w     17 calls
| | | DFH: compute_J                :      0.000u      0.000s      0.000w     17 calls
| | | DFH: compute_K                :      0.000u      0.000s      0.000w     17 calls
| JK: AO2USO                        :      0.000u      0.000s      0.000w     17 calls
HF: Form F                          :      0.000u      0.000s      0.000w     17 calls
HF: Form D                          :      0.000u      0.000s      0.000w     17 calls
HF: DIIS                            :      0.017u      0.000s      0.009w     15 calls
| DIISManager::add_entry            :      0.000u      0.000s      0.001w     15 calls
| DIISManager::extrapolate          :      0.000u      0.000s      0.001w     15 calls
| | bMatrix setup                   :      0.000u      0.000s      0.000w     15 calls
| | bMatrix pseudoinverse           :      0.000u      0.000s      0.000w     15 calls
| | New vector                      :      0.000u      0.000s      0.000w     15 calls
HF: Form C                          :      0.000u      0.000s      0.001w     15 calls

**************************************************************************************

Host: penguin

Timers On : Sun Jan  5 13:51:50 2020
Timers Off: Sun Jan  5 13:51:58 2020

Wall Time:        7.93 seconds

                                                       Time (seconds)
Module                                       User      System        Wall        Calls
DFH: sparsity prep                  :      0.033u      0.000s      0.030w      2 calls
DFH: initialize()                   :      0.167u      0.000s      0.100w      2 calls
DFH: AO Construction                :      0.000u      0.000s      0.002w      2 calls
DFH: AO-Met. Contraction            :      0.000u      0.000s      0.000w      2 calls
HF: Form core H                     :      0.000u      0.000s      0.001w      2 calls
HF: Form S/X                        :      0.000u      0.000s      0.000w      2 calls
HF: Guess                           :      0.550u      0.000s      0.337w      2 calls
SAD Guess                           :      0.517u      0.000s      0.314w      2 calls
HF: Form G                          :      0.000u      0.000s      0.002w     17 calls
JK: D                               :      0.000u      0.000s      0.000w     17 calls
JK: USO2AO                          :      0.000u      0.000s      0.000w     17 calls
JK: JK                              :      0.000u      0.000s      0.001w     17 calls
DFH: compute_JK()                   :      0.000u      0.000s      0.001w     17 calls
DFH: Grabbing AOs                   :      0.000u      0.000s      0.000w     17 calls
DFH: compute_J                      :      0.000u      0.000s      0.000w     17 calls
DFH: compute_K                      :      0.000u      0.000s      0.000w     17 calls
JK: AO2USO                          :      0.000u      0.000s      0.000w     17 calls
HF: Form F                          :      0.017u      0.000s      0.000w     17 calls
HF: Form D                          :      0.000u      0.000s      0.000w     17 calls
HF: DIIS                            :      0.000u      0.017s      0.008w     15 calls
DIISManager::add_entry              :      0.000u      0.000s      0.001w     15 calls
DIISManager::extrapolate            :      0.000u      0.000s      0.001w     15 calls
bMatrix setup                       :      0.000u      0.000s      0.000w     15 calls
bMatrix pseudoinverse               :      0.000u      0.000s      0.000w     15 calls
New vector                          :      0.000u      0.000s      0.000w     15 calls
HF: Form C                          :      0.000u      0.000s      0.001w     15 calls

--------------------------------------------------------------------------------------
DFH: sparsity prep                  :      0.033u      0.000s      0.030w      2 calls
DFH: initialize()                   :      0.167u      0.000s      0.100w      2 calls
| DFH: AO Construction              :      0.000u      0.000s      0.002w      2 calls
| DFH: AO-Met. Contraction          :      0.000u      0.000s      0.000w      2 calls
HF: Form core H                     :      0.000u      0.000s      0.001w      2 calls
HF: Form S/X                        :      0.000u      0.000s      0.000w      2 calls
HF: Guess                           :      0.550u      0.000s      0.337w      2 calls
| SAD Guess                         :      0.517u      0.000s      0.314w      2 calls
HF: Form G                          :      0.000u      0.000s      0.002w     17 calls
| JK: D                             :      0.000u      0.000s      0.000w     17 calls
| JK: USO2AO                        :      0.000u      0.000s      0.000w     17 calls
| JK: JK                            :      0.000u      0.000s      0.001w     17 calls
| | DFH: compute_JK()               :      0.000u      0.000s      0.001w     17 calls
| | | DFH: Grabbing AOs             :      0.000u      0.000s      0.000w     17 calls
| | | DFH: compute_J                :      0.000u      0.000s      0.000w     17 calls
| | | DFH: compute_K                :      0.000u      0.000s      0.000w     17 calls
| JK: AO2USO                        :      0.000u      0.000s      0.000w     17 calls
HF: Form F                          :      0.017u      0.000s      0.000w     17 calls
HF: Form D                          :      0.000u      0.000s      0.000w     17 calls
HF: DIIS                            :      0.000u      0.017s      0.008w     15 calls
| DIISManager::add_entry            :      0.000u      0.000s      0.001w     15 calls
| DIISManager::extrapolate          :      0.000u      0.000s      0.001w     15 calls
| | bMatrix setup                   :      0.000u      0.000s      0.000w     15 calls
| | bMatrix pseudoinverse           :      0.000u      0.000s      0.000w     15 calls
| | New vector                      :      0.000u      0.000s      0.000w     15 calls
HF: Form C                          :      0.000u      0.000s      0.001w     15 calls

**************************************************************************************

Host: penguin

Timers On : Sun Jan  5 13:54:41 2020
Timers Off: Sun Jan  5 13:54:49 2020

Wall Time:        8.58 seconds

                                                       Time (seconds)
Module                                       User      System        Wall        Calls
DFH: sparsity prep                  :      0.050u      0.000s      0.034w      2 calls
DFH: initialize()                   :      0.183u      0.000s      0.103w      2 calls
DFH: AO Construction                :      0.000u      0.000s      0.002w      2 calls
DFH: AO-Met. Contraction            :      0.000u      0.000s      0.000w      2 calls
HF: Form core H                     :      0.000u      0.000s      0.001w      2 calls
HF: Form S/X                        :      0.000u      0.000s      0.000w      2 calls
HF: Guess                           :      0.583u      0.000s      0.357w      2 calls
SAD Guess                           :      0.550u      0.000s      0.333w      2 calls
HF: Form G                          :      0.000u      0.000s      0.002w     17 calls
JK: D                               :      0.000u      0.000s      0.000w     17 calls
JK: USO2AO                          :      0.000u      0.000s      0.000w     17 calls
JK: JK                              :      0.000u      0.000s      0.001w     17 calls
DFH: compute_JK()                   :      0.000u      0.000s      0.001w     17 calls
DFH: Grabbing AOs                   :      0.000u      0.000s      0.000w     17 calls
DFH: compute_J                      :      0.000u      0.000s      0.000w     17 calls
DFH: compute_K                      :      0.000u      0.000s      0.000w     17 calls
JK: AO2USO                          :      0.000u      0.000s      0.000w     17 calls
HF: Form F                          :      0.000u      0.000s      0.000w     17 calls
HF: Form D                          :      0.000u      0.000s      0.000w     17 calls
HF: DIIS                            :      0.000u      0.000s      0.009w     15 calls
DIISManager::add_entry              :      0.000u      0.000s      0.001w     15 calls
DIISManager::extrapolate            :      0.000u      0.000s      0.001w     15 calls
bMatrix setup                       :      0.000u      0.000s      0.000w     15 calls
bMatrix pseudoinverse               :      0.000u      0.000s      0.000w     15 calls
New vector                          :      0.000u      0.000s      0.000w     15 calls
HF: Form C                          :      0.000u      0.000s      0.001w     15 calls

--------------------------------------------------------------------------------------
DFH: sparsity prep                  :      0.050u      0.000s      0.034w      2 calls
DFH: initialize()                   :      0.183u      0.000s      0.103w      2 calls
| DFH: AO Construction              :      0.000u      0.000s      0.002w      2 calls
| DFH: AO-Met. Contraction          :      0.000u      0.000s      0.000w      2 calls
HF: Form core H                     :      0.000u      0.000s      0.001w      2 calls
HF: Form S/X                        :      0.000u      0.000s      0.000w      2 calls
HF: Guess                           :      0.583u      0.000s      0.357w      2 calls
| SAD Guess                         :      0.550u      0.000s      0.333w      2 calls
HF: Form G                          :      0.000u      0.000s      0.002w     17 calls
| JK: D                             :      0.000u      0.000s      0.000w     17 calls
| JK: USO2AO                        :      0.000u      0.000s      0.000w     17 calls
| JK: JK                            :      0.000u      0.000s      0.001w     17 calls
| | DFH: compute_JK()               :      0.000u      0.000s      0.001w     17 calls
| | | DFH: Grabbing AOs             :      0.000u      0.000s      0.000w     17 calls
| | | DFH: compute_J                :      0.000u      0.000s      0.000w     17 calls
| | | DFH: compute_K                :      0.000u      0.000s      0.000w     17 calls
| JK: AO2USO                        :      0.000u      0.000s      0.000w     17 calls
HF: Form F                          :      0.000u      0.000s      0.000w     17 calls
HF: Form D                          :      0.000u      0.000s      0.000w     17 calls
HF: DIIS                            :      0.000u      0.000s      0.009w     15 calls
| DIISManager::add_entry            :      0.000u      0.000s      0.001w     15 calls
| DIISManager::extrapolate          :      0.000u      0.000s      0.001w     15 calls
| | bMatrix setup                   :      0.000u      0.000s      0.000w     15 calls
| | bMatrix pseudoinverse           :      0.000u      0.000s      0.000w     15 calls
| | New vector                      :      0.000u      0.000s      0.000w     15 calls
HF: Form C                          :      0.000u      0.000s      0.001w     15 calls

**************************************************************************************

Host: penguin

Timers On : Sun Jan  5 16:51:49 2020
Timers Off: Sun Jan  5 16:51:54 2020

Wall Time:        5.67 seconds

                                                       Time (seconds)
Module                                       User      System        Wall        Calls
Total PK formation time             :      0.117u      0.000s      0.068w      2 calls
HF: Form core H                     :      0.000u      0.000s      0.002w      2 calls
HF: Form S/X                        :      0.017u      0.000s      0.000w      2 calls
HF: Guess                           :      0.517u      0.000s      0.315w      2 calls
SAD Guess                           :      0.483u      0.000s      0.290w      2 calls
HF: Form G                          :      0.000u      0.000s      0.001w     15 calls
JK: D                               :      0.000u      0.000s      0.000w     15 calls
JK: USO2AO                          :      0.000u      0.000s      0.000w     15 calls
JK: JK                              :      0.000u      0.000s      0.000w     15 calls
PK computes JK                      :      0.000u      0.000s      0.000w     15 calls
JK: AO2USO                          :      0.000u      0.000s      0.000w     15 calls
HF: Form F                          :      0.000u      0.000s      0.000w     15 calls
HF: Form D                          :      0.000u      0.000s      0.000w     15 calls
HF: DIIS                            :      0.017u      0.000s      0.009w     13 calls
DIISManager::add_entry              :      0.000u      0.000s      0.001w     13 calls
DIISManager::extrapolate            :      0.000u      0.000s      0.002w     13 calls
bMatrix setup                       :      0.000u      0.000s      0.000w     13 calls
bMatrix pseudoinverse               :      0.000u      0.000s      0.001w     13 calls
New vector                          :      0.000u      0.000s      0.000w     13 calls
HF: Form C                          :      0.000u      0.000s      0.001w     13 calls

--------------------------------------------------------------------------------------
Total PK formation time             :      0.117u      0.000s      0.068w      2 calls
HF: Form core H                     :      0.000u      0.000s      0.002w      2 calls
HF: Form S/X                        :      0.017u      0.000s      0.000w      2 calls
HF: Guess                           :      0.517u      0.000s      0.315w      2 calls
| SAD Guess                         :      0.483u      0.000s      0.290w      2 calls
HF: Form G                          :      0.000u      0.000s      0.001w     15 calls
| JK: D                             :      0.000u      0.000s      0.000w     15 calls
| JK: USO2AO                        :      0.000u      0.000s      0.000w     15 calls
| JK: JK                            :      0.000u      0.000s      0.000w     15 calls
| | PK computes JK                  :      0.000u      0.000s      0.000w     15 calls
| JK: AO2USO                        :      0.000u      0.000s      0.000w     15 calls
HF: Form F                          :      0.000u      0.000s      0.000w     15 calls
HF: Form D                          :      0.000u      0.000s      0.000w     15 calls
HF: DIIS                            :      0.017u      0.000s      0.009w     13 calls
| DIISManager::add_entry            :      0.000u      0.000s      0.001w     13 calls
| DIISManager::extrapolate          :      0.000u      0.000s      0.002w     13 calls
| | bMatrix setup                   :      0.000u      0.000s      0.000w     13 calls
| | bMatrix pseudoinverse           :      0.000u      0.000s      0.001w     13 calls
| | New vector                      :      0.000u      0.000s      0.000w     13 calls
HF: Form C                          :      0.000u      0.000s      0.001w     13 calls

**************************************************************************************

Host: penguin

Timers On : Sun Jan  5 18:23:27 2020
Timers Off: Sun Jan  5 18:23:34 2020

Wall Time:        6.76 seconds

                                                       Time (seconds)
Module                                       User      System        Wall        Calls
Total PK formation time             :      0.050u      0.000s      0.028w      1 calls
HF: Form core H                     :      0.000u      0.000s      0.001w      1 calls
HF: Form S/X                        :      0.000u      0.000s      0.000w      1 calls
HF: Guess                           :      0.150u      0.000s      0.090w      1 calls
SAD Guess                           :      0.133u      0.000s      0.079w      1 calls
HF: Form G                          :      0.000u      0.000s      0.000w      3 calls
JK: D                               :      0.000u      0.000s      0.000w      3 calls
JK: USO2AO                          :      0.000u      0.000s      0.000w      3 calls
JK: JK                              :      0.000u      0.000s      0.000w      3 calls
PK computes JK                      :      0.000u      0.000s      0.000w      3 calls
JK: AO2USO                          :      0.000u      0.000s      0.000w      3 calls
HF: Form F                          :      0.000u      0.000s      0.000w      3 calls
HF: Form D                          :      0.000u      0.000s      0.000w      3 calls
HF: DIIS                            :      0.000u      0.000s      0.001w      2 calls
DIISManager::add_entry              :      0.000u      0.000s      0.000w      2 calls
DIISManager::extrapolate            :      0.000u      0.000s      0.000w      2 calls
bMatrix setup                       :      0.000u      0.000s      0.000w      2 calls
bMatrix pseudoinverse               :      0.000u      0.000s      0.000w      2 calls
New vector                          :      0.000u      0.000s      0.000w      2 calls
HF: Form C                          :      0.000u      0.000s      0.000w      2 calls

--------------------------------------------------------------------------------------
Total PK formation time             :      0.050u      0.000s      0.028w      1 calls
HF: Form core H                     :      0.000u      0.000s      0.001w      1 calls
HF: Form S/X                        :      0.000u      0.000s      0.000w      1 calls
HF: Guess                           :      0.150u      0.000s      0.090w      1 calls
| SAD Guess                         :      0.133u      0.000s      0.079w      1 calls
HF: Form G                          :      0.000u      0.000s      0.000w      3 calls
| JK: D                             :      0.000u      0.000s      0.000w      3 calls
| JK: USO2AO                        :      0.000u      0.000s      0.000w      3 calls
| JK: JK                            :      0.000u      0.000s      0.000w      3 calls
| | PK computes JK                  :      0.000u      0.000s      0.000w      3 calls
| JK: AO2USO                        :      0.000u      0.000s      0.000w      3 calls
HF: Form F                          :      0.000u      0.000s      0.000w      3 calls
HF: Form D                          :      0.000u      0.000s      0.000w      3 calls
HF: DIIS                            :      0.000u      0.000s      0.001w      2 calls
| DIISManager::add_entry            :      0.000u      0.000s      0.000w      2 calls
| DIISManager::extrapolate          :      0.000u      0.000s      0.000w      2 calls
| | bMatrix setup                   :      0.000u      0.000s      0.000w      2 calls
| | bMatrix pseudoinverse           :      0.000u      0.000s      0.000w      2 calls
| | New vector                      :      0.000u      0.000s      0.000w      2 calls
HF: Form C                          :      0.000u      0.000s      0.000w      2 calls

**************************************************************************************

Host: penguin

Timers On : Sun Jan  5 18:25:02 2020
Timers Off: Sun Jan  5 18:25:07 2020

Wall Time:        5.10 seconds

                                                       Time (seconds)
Module                                       User      System        Wall        Calls
Total PK formation time             :      0.050u      0.000s      0.029w      1 calls
HF: Form core H                     :      0.000u      0.000s      0.001w      1 calls
HF: Form S/X                        :      0.000u      0.000s      0.000w      1 calls
HF: Guess                           :      0.150u      0.017s      0.093w      1 calls
SAD Guess                           :      0.133u      0.017s      0.080w      1 calls
HF: Form G                          :      0.000u      0.000s      0.000w      3 calls
JK: D                               :      0.000u      0.000s      0.000w      3 calls
JK: USO2AO                          :      0.000u      0.000s      0.000w      3 calls
JK: JK                              :      0.000u      0.000s      0.000w      3 calls
PK computes JK                      :      0.000u      0.000s      0.000w      3 calls
JK: AO2USO                          :      0.000u      0.000s      0.000w      3 calls
HF: Form F                          :      0.000u      0.000s      0.000w      3 calls
HF: Form D                          :      0.000u      0.000s      0.000w      3 calls
HF: DIIS                            :      0.000u      0.000s      0.001w      2 calls
DIISManager::add_entry              :      0.000u      0.000s      0.000w      2 calls
DIISManager::extrapolate            :      0.000u      0.000s      0.000w      2 calls
bMatrix setup                       :      0.000u      0.000s      0.000w      2 calls
bMatrix pseudoinverse               :      0.000u      0.000s      0.000w      2 calls
New vector                          :      0.000u      0.000s      0.000w      2 calls
HF: Form C                          :      0.000u      0.000s      0.000w      2 calls

--------------------------------------------------------------------------------------
Total PK formation time             :      0.050u      0.000s      0.029w      1 calls
HF: Form core H                     :      0.000u      0.000s      0.001w      1 calls
HF: Form S/X                        :      0.000u      0.000s      0.000w      1 calls
HF: Guess                           :      0.150u      0.017s      0.093w      1 calls
| SAD Guess                         :      0.133u      0.017s      0.080w      1 calls
HF: Form G                          :      0.000u      0.000s      0.000w      3 calls
| JK: D                             :      0.000u      0.000s      0.000w      3 calls
| JK: USO2AO                        :      0.000u      0.000s      0.000w      3 calls
| JK: JK                            :      0.000u      0.000s      0.000w      3 calls
| | PK computes JK                  :      0.000u      0.000s      0.000w      3 calls
| JK: AO2USO                        :      0.000u      0.000s      0.000w      3 calls
HF: Form F                          :      0.000u      0.000s      0.000w      3 calls
HF: Form D                          :      0.000u      0.000s      0.000w      3 calls
HF: DIIS                            :      0.000u      0.000s      0.001w      2 calls
| DIISManager::add_entry            :      0.000u      0.000s      0.000w      2 calls
| DIISManager::extrapolate          :      0.000u      0.000s      0.000w      2 calls
| | bMatrix setup                   :      0.000u      0.000s      0.000w      2 calls
| | bMatrix pseudoinverse           :      0.000u      0.000s      0.000w      2 calls
| | New vector                      :      0.000u      0.000s      0.000w      2 calls
HF: Form C                          :      0.000u      0.000s      0.000w      2 calls

**************************************************************************************

Host: penguin

Timers On : Sun Jan  5 18:26:46 2020
Timers Off: Sun Jan  5 18:26:51 2020

Wall Time:        5.04 seconds

                                                       Time (seconds)
Module                                       User      System        Wall        Calls
Total PK formation time             :      0.100u      0.000s      0.061w      2 calls
HF: Form core H                     :      0.000u      0.000s      0.002w      2 calls
HF: Form S/X                        :      0.000u      0.000s      0.000w      2 calls
HF: Guess                           :      0.433u      0.000s      0.265w      2 calls
SAD Guess                           :      0.400u      0.000s      0.241w      2 calls
HF: Form G                          :      0.000u      0.000s      0.001w     15 calls
JK: D                               :      0.000u      0.000s      0.000w     15 calls
JK: USO2AO                          :      0.000u      0.000s      0.000w     15 calls
JK: JK                              :      0.000u      0.000s      0.000w     15 calls
PK computes JK                      :      0.000u      0.000s      0.000w     15 calls
JK: AO2USO                          :      0.000u      0.000s      0.000w     15 calls
HF: Form F                          :      0.000u      0.000s      0.000w     15 calls
HF: Form D                          :      0.000u      0.000s      0.000w     15 calls
HF: DIIS                            :      0.017u      0.000s      0.008w     13 calls
DIISManager::add_entry              :      0.000u      0.000s      0.001w     13 calls
DIISManager::extrapolate            :      0.000u      0.000s      0.001w     13 calls
bMatrix setup                       :      0.000u      0.000s      0.000w     13 calls
bMatrix pseudoinverse               :      0.000u      0.000s      0.000w     13 calls
New vector                          :      0.000u      0.000s      0.000w     13 calls
HF: Form C                          :      0.000u      0.000s      0.000w     13 calls

--------------------------------------------------------------------------------------
Total PK formation time             :      0.100u      0.000s      0.061w      2 calls
HF: Form core H                     :      0.000u      0.000s      0.002w      2 calls
HF: Form S/X                        :      0.000u      0.000s      0.000w      2 calls
HF: Guess                           :      0.433u      0.000s      0.265w      2 calls
| SAD Guess                         :      0.400u      0.000s      0.241w      2 calls
HF: Form G                          :      0.000u      0.000s      0.001w     15 calls
| JK: D                             :      0.000u      0.000s      0.000w     15 calls
| JK: USO2AO                        :      0.000u      0.000s      0.000w     15 calls
| JK: JK                            :      0.000u      0.000s      0.000w     15 calls
| | PK computes JK                  :      0.000u      0.000s      0.000w     15 calls
| JK: AO2USO                        :      0.000u      0.000s      0.000w     15 calls
HF: Form F                          :      0.000u      0.000s      0.000w     15 calls
HF: Form D                          :      0.000u      0.000s      0.000w     15 calls
HF: DIIS                            :      0.017u      0.000s      0.008w     13 calls
| DIISManager::add_entry            :      0.000u      0.000s      0.001w     13 calls
| DIISManager::extrapolate          :      0.000u      0.000s      0.001w     13 calls
| | bMatrix setup                   :      0.000u      0.000s      0.000w     13 calls
| | bMatrix pseudoinverse           :      0.000u      0.000s      0.000w     13 calls
| | New vector                      :      0.000u      0.000s      0.000w     13 calls
HF: Form C                          :      0.000u      0.000s      0.000w     13 calls

**************************************************************************************

Host: penguin

Timers On : Sun Jan  5 18:27:10 2020
Timers Off: Sun Jan  5 18:28:15 2020

Wall Time:       65.78 seconds

                                                       Time (seconds)
Module                                       User      System        Wall        Calls
Total PK formation time             :      0.433u      0.000s      0.265w      8 calls
HF: Form core H                     :      0.017u      0.000s      0.016w      8 calls
HF: Form S/X                        :      0.000u      0.000s      0.001w      8 calls
HF: Guess                           :      2.250u      0.033s      1.347w      8 calls
SAD Guess                           :      2.050u      0.033s      1.244w      8 calls
HF: Form G                          :      0.017u      0.000s      0.005w     83 calls
JK: D                               :      0.000u      0.000s      0.001w     83 calls
JK: USO2AO                          :      0.000u      0.000s      0.000w     83 calls
JK: JK                              :      0.000u      0.000s      0.001w     83 calls
PK computes JK                      :      0.000u      0.000s      0.001w     83 calls
JK: AO2USO                          :      0.000u      0.000s      0.000w     83 calls
HF: Form F                          :      0.000u      0.000s      0.001w     83 calls
HF: Form D                          :      0.000u      0.017s      0.001w     83 calls
HF: DIIS                            :      0.117u      0.000s      0.056w     75 calls
DIISManager::add_entry              :      0.000u      0.000s      0.007w     75 calls
DIISManager::extrapolate            :      0.033u      0.000s      0.013w     75 calls
bMatrix setup                       :      0.000u      0.000s      0.004w     75 calls
bMatrix pseudoinverse               :      0.017u      0.000s      0.007w     75 calls
New vector                          :      0.017u      0.000s      0.002w     75 calls
HF: Form C                          :      0.017u      0.000s      0.003w     75 calls

--------------------------------------------------------------------------------------
Total PK formation time             :      0.433u      0.000s      0.265w      8 calls
HF: Form core H                     :      0.017u      0.000s      0.016w      8 calls
HF: Form S/X                        :      0.000u      0.000s      0.001w      8 calls
HF: Guess                           :      2.250u      0.033s      1.347w      8 calls
| SAD Guess                         :      2.050u      0.033s      1.244w      8 calls
HF: Form G                          :      0.017u      0.000s      0.005w     83 calls
| JK: D                             :      0.000u      0.000s      0.001w     83 calls
| JK: USO2AO                        :      0.000u      0.000s      0.000w     83 calls
| JK: JK                            :      0.000u      0.000s      0.001w     83 calls
| | PK computes JK                  :      0.000u      0.000s      0.001w     83 calls
| JK: AO2USO                        :      0.000u      0.000s      0.000w     83 calls
HF: Form F                          :      0.000u      0.000s      0.001w     83 calls
HF: Form D                          :      0.000u      0.017s      0.001w     83 calls
HF: DIIS                            :      0.117u      0.000s      0.056w     75 calls
| DIISManager::add_entry            :      0.000u      0.000s      0.007w     75 calls
| DIISManager::extrapolate          :      0.033u      0.000s      0.013w     75 calls
| | bMatrix setup                   :      0.000u      0.000s      0.004w     75 calls
| | bMatrix pseudoinverse           :      0.017u      0.000s      0.007w     75 calls
| | New vector                      :      0.017u      0.000s      0.002w     75 calls
HF: Form C                          :      0.017u      0.000s      0.003w     75 calls

**************************************************************************************

Host: penguin

Timers On : Sun Jan  5 18:56:32 2020
Timers Off: Sun Jan  5 18:56:41 2020

Wall Time:        8.97 seconds

                                                       Time (seconds)
Module                                       User      System        Wall        Calls
DFH: sparsity prep                  :      0.067u      0.000s      0.039w      2 calls
DFH: initialize()                   :      0.183u      0.000s      0.111w      2 calls
DFH: AO Construction                :      0.000u      0.000s      0.002w      2 calls
DFH: AO-Met. Contraction            :      0.000u      0.000s      0.000w      2 calls
HF: Form core H                     :      0.000u      0.000s      0.001w      2 calls
HF: Form S/X                        :      0.000u      0.000s      0.000w      2 calls
HF: Guess                           :      0.667u      0.000s      0.397w      2 calls
SAD Guess                           :      0.617u      0.000s      0.372w      2 calls
HF: Form G                          :      0.000u      0.000s      0.002w     17 calls
JK: D                               :      0.000u      0.000s      0.000w     17 calls
JK: USO2AO                          :      0.000u      0.000s      0.000w     17 calls
JK: JK                              :      0.000u      0.000s      0.001w     17 calls
DFH: compute_JK()                   :      0.000u      0.000s      0.001w     17 calls
DFH: Grabbing AOs                   :      0.000u      0.000s      0.000w     17 calls
DFH: compute_J                      :      0.000u      0.000s      0.000w     17 calls
DFH: compute_K                      :      0.000u      0.000s      0.000w     17 calls
JK: AO2USO                          :      0.000u      0.000s      0.000w     17 calls
HF: Form F                          :      0.000u      0.000s      0.000w     17 calls
HF: Form D                          :      0.000u      0.000s      0.000w     17 calls
HF: DIIS                            :      0.033u      0.000s      0.010w     15 calls
DIISManager::add_entry              :      0.000u      0.000s      0.001w     15 calls
DIISManager::extrapolate            :      0.000u      0.000s      0.001w     15 calls
bMatrix setup                       :      0.000u      0.000s      0.000w     15 calls
bMatrix pseudoinverse               :      0.000u      0.000s      0.000w     15 calls
New vector                          :      0.000u      0.000s      0.000w     15 calls
HF: Form C                          :      0.000u      0.000s      0.001w     15 calls

--------------------------------------------------------------------------------------
DFH: sparsity prep                  :      0.067u      0.000s      0.039w      2 calls
DFH: initialize()                   :      0.183u      0.000s      0.111w      2 calls
| DFH: AO Construction              :      0.000u      0.000s      0.002w      2 calls
| DFH: AO-Met. Contraction          :      0.000u      0.000s      0.000w      2 calls
HF: Form core H                     :      0.000u      0.000s      0.001w      2 calls
HF: Form S/X                        :      0.000u      0.000s      0.000w      2 calls
HF: Guess                           :      0.667u      0.000s      0.397w      2 calls
| SAD Guess                         :      0.617u      0.000s      0.372w      2 calls
HF: Form G                          :      0.000u      0.000s      0.002w     17 calls
| JK: D                             :      0.000u      0.000s      0.000w     17 calls
| JK: USO2AO                        :      0.000u      0.000s      0.000w     17 calls
| JK: JK                            :      0.000u      0.000s      0.001w     17 calls
| | DFH: compute_JK()               :      0.000u      0.000s      0.001w     17 calls
| | | DFH: Grabbing AOs             :      0.000u      0.000s      0.000w     17 calls
| | | DFH: compute_J                :      0.000u      0.000s      0.000w     17 calls
| | | DFH: compute_K                :      0.000u      0.000s      0.000w     17 calls
| JK: AO2USO                        :      0.000u      0.000s      0.000w     17 calls
HF: Form F                          :      0.000u      0.000s      0.000w     17 calls
HF: Form D                          :      0.000u      0.000s      0.000w     17 calls
HF: DIIS                            :      0.033u      0.000s      0.010w     15 calls
| DIISManager::add_entry            :      0.000u      0.000s      0.001w     15 calls
| DIISManager::extrapolate          :      0.000u      0.000s      0.001w     15 calls
| | bMatrix setup                   :      0.000u      0.000s      0.000w     15 calls
| | bMatrix pseudoinverse           :      0.000u      0.000s      0.000w     15 calls
| | New vector                      :      0.000u      0.000s      0.000w     15 calls
HF: Form C                          :      0.000u      0.000s      0.001w     15 calls

**************************************************************************************

Host: penguin

Timers On : Sun Jan  5 18:59:47 2020
Timers Off: Sun Jan  5 18:59:56 2020

Wall Time:        8.95 seconds

                                                       Time (seconds)
Module                                       User      System        Wall        Calls
DFH: sparsity prep                  :      0.050u      0.000s      0.034w      2 calls
DFH: initialize()                   :      0.167u      0.000s      0.107w      2 calls
DFH: AO Construction                :      0.000u      0.000s      0.002w      2 calls
DFH: AO-Met. Contraction            :      0.000u      0.000s      0.000w      2 calls
HF: Form core H                     :      0.017u      0.000s      0.001w      2 calls
HF: Form S/X                        :      0.000u      0.000s      0.000w      2 calls
HF: Guess                           :      0.617u      0.000s      0.378w      2 calls
SAD Guess                           :      0.583u      0.000s      0.353w      2 calls
HF: Form G                          :      0.000u      0.000s      0.002w     17 calls
JK: D                               :      0.000u      0.000s      0.000w     17 calls
JK: USO2AO                          :      0.000u      0.000s      0.000w     17 calls
JK: JK                              :      0.000u      0.000s      0.001w     17 calls
DFH: compute_JK()                   :      0.000u      0.000s      0.001w     17 calls
DFH: Grabbing AOs                   :      0.000u      0.000s      0.000w     17 calls
DFH: compute_J                      :      0.000u      0.000s      0.000w     17 calls
DFH: compute_K                      :      0.000u      0.000s      0.000w     17 calls
JK: AO2USO                          :      0.000u      0.000s      0.000w     17 calls
HF: Form F                          :      0.000u      0.000s      0.000w     17 calls
HF: Form D                          :      0.000u      0.000s      0.000w     17 calls
HF: DIIS                            :      0.017u      0.000s      0.009w     15 calls
DIISManager::add_entry              :      0.000u      0.000s      0.001w     15 calls
DIISManager::extrapolate            :      0.000u      0.000s      0.001w     15 calls
bMatrix setup                       :      0.000u      0.000s      0.000w     15 calls
bMatrix pseudoinverse               :      0.000u      0.000s      0.000w     15 calls
New vector                          :      0.000u      0.000s      0.000w     15 calls
HF: Form C                          :      0.000u      0.000s      0.001w     15 calls

--------------------------------------------------------------------------------------
DFH: sparsity prep                  :      0.050u      0.000s      0.034w      2 calls
DFH: initialize()                   :      0.167u      0.000s      0.107w      2 calls
| DFH: AO Construction              :      0.000u      0.000s      0.002w      2 calls
| DFH: AO-Met. Contraction          :      0.000u      0.000s      0.000w      2 calls
HF: Form core H                     :      0.017u      0.000s      0.001w      2 calls
HF: Form S/X                        :      0.000u      0.000s      0.000w      2 calls
HF: Guess                           :      0.617u      0.000s      0.378w      2 calls
| SAD Guess                         :      0.583u      0.000s      0.353w      2 calls
HF: Form G                          :      0.000u      0.000s      0.002w     17 calls
| JK: D                             :      0.000u      0.000s      0.000w     17 calls
| JK: USO2AO                        :      0.000u      0.000s      0.000w     17 calls
| JK: JK                            :      0.000u      0.000s      0.001w     17 calls
| | DFH: compute_JK()               :      0.000u      0.000s      0.001w     17 calls
| | | DFH: Grabbing AOs             :      0.000u      0.000s      0.000w     17 calls
| | | DFH: compute_J                :      0.000u      0.000s      0.000w     17 calls
| | | DFH: compute_K                :      0.000u      0.000s      0.000w     17 calls
| JK: AO2USO                        :      0.000u      0.000s      0.000w     17 calls
HF: Form F                          :      0.000u      0.000s      0.000w     17 calls
HF: Form D                          :      0.000u      0.000s      0.000w     17 calls
HF: DIIS                            :      0.017u      0.000s      0.009w     15 calls
| DIISManager::add_entry            :      0.000u      0.000s      0.001w     15 calls
| DIISManager::extrapolate          :      0.000u      0.000s      0.001w     15 calls
| | bMatrix setup                   :      0.000u      0.000s      0.000w     15 calls
| | bMatrix pseudoinverse           :      0.000u      0.000s      0.000w     15 calls
| | New vector                      :      0.000u      0.000s      0.000w     15 calls
HF: Form C                          :      0.000u      0.000s      0.001w     15 calls

**************************************************************************************

Host: penguin

Timers On : Sun Jan  5 19:02:45 2020
Timers Off: Sun Jan  5 19:02:53 2020

Wall Time:        8.51 seconds

                                                       Time (seconds)
Module                                       User      System        Wall        Calls
DFH: sparsity prep                  :      0.067u      0.000s      0.033w      2 calls
DFH: initialize()                   :      0.150u      0.000s      0.099w      2 calls
DFH: AO Construction                :      0.000u      0.000s      0.002w      2 calls
DFH: AO-Met. Contraction            :      0.000u      0.000s      0.000w      2 calls
HF: Form core H                     :      0.000u      0.000s      0.001w      2 calls
HF: Form S/X                        :      0.000u      0.000s      0.000w      2 calls
HF: Guess                           :      0.583u      0.000s      0.357w      2 calls
SAD Guess                           :      0.533u      0.000s      0.333w      2 calls
HF: Form G                          :      0.000u      0.000s      0.002w     17 calls
JK: D                               :      0.000u      0.000s      0.000w     17 calls
JK: USO2AO                          :      0.000u      0.000s      0.000w     17 calls
JK: JK                              :      0.000u      0.000s      0.001w     17 calls
DFH: compute_JK()                   :      0.000u      0.000s      0.001w     17 calls
DFH: Grabbing AOs                   :      0.000u      0.000s      0.000w     17 calls
DFH: compute_J                      :      0.000u      0.000s      0.000w     17 calls
DFH: compute_K                      :      0.000u      0.000s      0.000w     17 calls
JK: AO2USO                          :      0.000u      0.000s      0.000w     17 calls
HF: Form F                          :      0.000u      0.000s      0.000w     17 calls
HF: Form D                          :      0.000u      0.000s      0.000w     17 calls
HF: DIIS                            :      0.017u      0.000s      0.009w     15 calls
DIISManager::add_entry              :      0.000u      0.000s      0.001w     15 calls
DIISManager::extrapolate            :      0.000u      0.000s      0.001w     15 calls
bMatrix setup                       :      0.000u      0.000s      0.000w     15 calls
bMatrix pseudoinverse               :      0.000u      0.000s      0.000w     15 calls
New vector                          :      0.000u      0.000s      0.000w     15 calls
HF: Form C                          :      0.000u      0.000s      0.001w     15 calls

--------------------------------------------------------------------------------------
DFH: sparsity prep                  :      0.067u      0.000s      0.033w      2 calls
DFH: initialize()                   :      0.150u      0.000s      0.099w      2 calls
| DFH: AO Construction              :      0.000u      0.000s      0.002w      2 calls
| DFH: AO-Met. Contraction          :      0.000u      0.000s      0.000w      2 calls
HF: Form core H                     :      0.000u      0.000s      0.001w      2 calls
HF: Form S/X                        :      0.000u      0.000s      0.000w      2 calls
HF: Guess                           :      0.583u      0.000s      0.357w      2 calls
| SAD Guess                         :      0.533u      0.000s      0.333w      2 calls
HF: Form G                          :      0.000u      0.000s      0.002w     17 calls
| JK: D                             :      0.000u      0.000s      0.000w     17 calls
| JK: USO2AO                        :      0.000u      0.000s      0.000w     17 calls
| JK: JK                            :      0.000u      0.000s      0.001w     17 calls
| | DFH: compute_JK()               :      0.000u      0.000s      0.001w     17 calls
| | | DFH: Grabbing AOs             :      0.000u      0.000s      0.000w     17 calls
| | | DFH: compute_J                :      0.000u      0.000s      0.000w     17 calls
| | | DFH: compute_K                :      0.000u      0.000s      0.000w     17 calls
| JK: AO2USO                        :      0.000u      0.000s      0.000w     17 calls
HF: Form F                          :      0.000u      0.000s      0.000w     17 calls
HF: Form D                          :      0.000u      0.000s      0.000w     17 calls
HF: DIIS                            :      0.017u      0.000s      0.009w     15 calls
| DIISManager::add_entry            :      0.000u      0.000s      0.001w     15 calls
| DIISManager::extrapolate          :      0.000u      0.000s      0.001w     15 calls
| | bMatrix setup                   :      0.000u      0.000s      0.000w     15 calls
| | bMatrix pseudoinverse           :      0.000u      0.000s      0.000w     15 calls
| | New vector                      :      0.000u      0.000s      0.000w     15 calls
HF: Form C                          :      0.000u      0.000s      0.001w     15 calls

**************************************************************************************

Host: penguin

Timers On : Sun Jan  5 19:07:09 2020
Timers Off: Sun Jan  5 19:07:18 2020

Wall Time:        8.42 seconds

                                                       Time (seconds)
Module                                       User      System        Wall        Calls
DFH: sparsity prep                  :      0.050u      0.000s      0.034w      2 calls
DFH: initialize()                   :      0.133u      0.000s      0.099w      2 calls
DFH: AO Construction                :      0.000u      0.000s      0.002w      2 calls
DFH: AO-Met. Contraction            :      0.000u      0.000s      0.000w      2 calls
HF: Form core H                     :      0.017u      0.000s      0.001w      2 calls
HF: Form S/X                        :      0.000u      0.000s      0.000w      2 calls
HF: Guess                           :      0.567u      0.000s      0.352w      2 calls
SAD Guess                           :      0.533u      0.000s      0.329w      2 calls
HF: Form G                          :      0.000u      0.000s      0.002w     17 calls
JK: D                               :      0.000u      0.000s      0.000w     17 calls
JK: USO2AO                          :      0.000u      0.000s      0.000w     17 calls
JK: JK                              :      0.000u      0.000s      0.001w     17 calls
DFH: compute_JK()                   :      0.000u      0.000s      0.001w     17 calls
DFH: Grabbing AOs                   :      0.000u      0.000s      0.000w     17 calls
DFH: compute_J                      :      0.000u      0.000s      0.000w     17 calls
DFH: compute_K                      :      0.000u      0.000s      0.000w     17 calls
JK: AO2USO                          :      0.000u      0.000s      0.000w     17 calls
HF: Form F                          :      0.000u      0.000s      0.000w     17 calls
HF: Form D                          :      0.000u      0.000s      0.000w     17 calls
HF: DIIS                            :      0.017u      0.000s      0.008w     15 calls
DIISManager::add_entry              :      0.000u      0.000s      0.001w     15 calls
DIISManager::extrapolate            :      0.000u      0.000s      0.001w     15 calls
bMatrix setup                       :      0.000u      0.000s      0.000w     15 calls
bMatrix pseudoinverse               :      0.000u      0.000s      0.000w     15 calls
New vector                          :      0.000u      0.000s      0.000w     15 calls
HF: Form C                          :      0.000u      0.000s      0.001w     15 calls

--------------------------------------------------------------------------------------
DFH: sparsity prep                  :      0.050u      0.000s      0.034w      2 calls
DFH: initialize()                   :      0.133u      0.000s      0.099w      2 calls
| DFH: AO Construction              :      0.000u      0.000s      0.002w      2 calls
| DFH: AO-Met. Contraction          :      0.000u      0.000s      0.000w      2 calls
HF: Form core H                     :      0.017u      0.000s      0.001w      2 calls
HF: Form S/X                        :      0.000u      0.000s      0.000w      2 calls
HF: Guess                           :      0.567u      0.000s      0.352w      2 calls
| SAD Guess                         :      0.533u      0.000s      0.329w      2 calls
HF: Form G                          :      0.000u      0.000s      0.002w     17 calls
| JK: D                             :      0.000u      0.000s      0.000w     17 calls
| JK: USO2AO                        :      0.000u      0.000s      0.000w     17 calls
| JK: JK                            :      0.000u      0.000s      0.001w     17 calls
| | DFH: compute_JK()               :      0.000u      0.000s      0.001w     17 calls
| | | DFH: Grabbing AOs             :      0.000u      0.000s      0.000w     17 calls
| | | DFH: compute_J                :      0.000u      0.000s      0.000w     17 calls
| | | DFH: compute_K                :      0.000u      0.000s      0.000w     17 calls
| JK: AO2USO                        :      0.000u      0.000s      0.000w     17 calls
HF: Form F                          :      0.000u      0.000s      0.000w     17 calls
HF: Form D                          :      0.000u      0.000s      0.000w     17 calls
HF: DIIS                            :      0.017u      0.000s      0.008w     15 calls
| DIISManager::add_entry            :      0.000u      0.000s      0.001w     15 calls
| DIISManager::extrapolate          :      0.000u      0.000s      0.001w     15 calls
| | bMatrix setup                   :      0.000u      0.000s      0.000w     15 calls
| | bMatrix pseudoinverse           :      0.000u      0.000s      0.000w     15 calls
| | New vector                      :      0.000u      0.000s      0.000w     15 calls
HF: Form C                          :      0.000u      0.000s      0.001w     15 calls

**************************************************************************************

Host: penguin

Timers On : Sun Jan  5 19:09:05 2020
Timers Off: Sun Jan  5 19:09:13 2020

Wall Time:        8.53 seconds

                                                       Time (seconds)
Module                                       User      System        Wall        Calls
DFH: sparsity prep                  :      0.050u      0.000s      0.032w      2 calls
DFH: initialize()                   :      0.167u      0.000s      0.099w      2 calls
DFH: AO Construction                :      0.017u      0.000s      0.002w      2 calls
DFH: AO-Met. Contraction            :      0.000u      0.000s      0.000w      2 calls
HF: Form core H                     :      0.000u      0.000s      0.001w      2 calls
HF: Form S/X                        :      0.000u      0.000s      0.000w      2 calls
HF: Guess                           :      0.600u      0.000s      0.368w      2 calls
SAD Guess                           :      0.567u      0.000s      0.345w      2 calls
HF: Form G                          :      0.000u      0.000s      0.002w     17 calls
JK: D                               :      0.000u      0.000s      0.000w     17 calls
JK: USO2AO                          :      0.000u      0.000s      0.000w     17 calls
JK: JK                              :      0.000u      0.000s      0.001w     17 calls
DFH: compute_JK()                   :      0.000u      0.000s      0.001w     17 calls
DFH: Grabbing AOs                   :      0.000u      0.000s      0.000w     17 calls
DFH: compute_J                      :      0.000u      0.000s      0.000w     17 calls
DFH: compute_K                      :      0.000u      0.000s      0.000w     17 calls
JK: AO2USO                          :      0.000u      0.000s      0.000w     17 calls
HF: Form F                          :      0.000u      0.000s      0.000w     17 calls
HF: Form D                          :      0.000u      0.000s      0.000w     17 calls
HF: DIIS                            :      0.000u      0.000s      0.008w     15 calls
DIISManager::add_entry              :      0.000u      0.000s      0.001w     15 calls
DIISManager::extrapolate            :      0.000u      0.000s      0.001w     15 calls
bMatrix setup                       :      0.000u      0.000s      0.000w     15 calls
bMatrix pseudoinverse               :      0.000u      0.000s      0.000w     15 calls
New vector                          :      0.000u      0.000s      0.000w     15 calls
HF: Form C                          :      0.017u      0.000s      0.001w     15 calls

--------------------------------------------------------------------------------------
DFH: sparsity prep                  :      0.050u      0.000s      0.032w      2 calls
DFH: initialize()                   :      0.167u      0.000s      0.099w      2 calls
| DFH: AO Construction              :      0.017u      0.000s      0.002w      2 calls
| DFH: AO-Met. Contraction          :      0.000u      0.000s      0.000w      2 calls
HF: Form core H                     :      0.000u      0.000s      0.001w      2 calls
HF: Form S/X                        :      0.000u      0.000s      0.000w      2 calls
HF: Guess                           :      0.600u      0.000s      0.368w      2 calls
| SAD Guess                         :      0.567u      0.000s      0.345w      2 calls
HF: Form G                          :      0.000u      0.000s      0.002w     17 calls
| JK: D                             :      0.000u      0.000s      0.000w     17 calls
| JK: USO2AO                        :      0.000u      0.000s      0.000w     17 calls
| JK: JK                            :      0.000u      0.000s      0.001w     17 calls
| | DFH: compute_JK()               :      0.000u      0.000s      0.001w     17 calls
| | | DFH: Grabbing AOs             :      0.000u      0.000s      0.000w     17 calls
| | | DFH: compute_J                :      0.000u      0.000s      0.000w     17 calls
| | | DFH: compute_K                :      0.000u      0.000s      0.000w     17 calls
| JK: AO2USO                        :      0.000u      0.000s      0.000w     17 calls
HF: Form F                          :      0.000u      0.000s      0.000w     17 calls
HF: Form D                          :      0.000u      0.000s      0.000w     17 calls
HF: DIIS                            :      0.000u      0.000s      0.008w     15 calls
| DIISManager::add_entry            :      0.000u      0.000s      0.001w     15 calls
| DIISManager::extrapolate          :      0.000u      0.000s      0.001w     15 calls
| | bMatrix setup                   :      0.000u      0.000s      0.000w     15 calls
| | bMatrix pseudoinverse           :      0.000u      0.000s      0.000w     15 calls
| | New vector                      :      0.000u      0.000s      0.000w     15 calls
HF: Form C                          :      0.017u      0.000s      0.001w     15 calls

**************************************************************************************

Host: penguin

Timers On : Sun Jan  5 19:10:30 2020
Timers Off: Sun Jan  5 19:10:38 2020

Wall Time:        8.41 seconds

                                                       Time (seconds)
Module                                       User      System        Wall        Calls
DFH: sparsity prep                  :      0.067u      0.000s      0.032w      2 calls
DFH: initialize()                   :      0.183u      0.000s      0.100w      2 calls
DFH: AO Construction                :      0.017u      0.000s      0.002w      2 calls
DFH: AO-Met. Contraction            :      0.000u      0.000s      0.000w      2 calls
HF: Form core H                     :      0.000u      0.000s      0.001w      2 calls
[...]
HF: Form D                          :      0.000u      0.000s      0.000w     17 calls
HF: DIIS                            :      0.017u      0.000s      0.005w     15 calls
DIISManager::add_entry              :      0.000u      0.000s      0.000w     15 calls
DIISManager::extrapolate            :      0.000u      0.000s      0.001w     15 calls
bMatrix setup                       :      0.000u      0.000s      0.000w     15 calls
bMatrix pseudoinverse               :      0.000u      0.000s      0.000w     15 calls
New vector                          :      0.000u      0.000s      0.000w     15 calls
HF: Form C                          :      0.000u      0.000s      0.000w     15 calls

--------------------------------------------------------------------------------------
DFH: sparsity prep                  :      0.033u      0.000s      0.021w      2 calls
DFH: initialize()                   :      0.117u      0.000s      0.067w      2 calls
| DFH: AO Construction              :      0.000u      0.000s      0.001w      2 calls
| DFH: AO-Met. Contraction          :      0.000u      0.000s      0.000w      2 calls
HF: Form core H                     :      0.000u      0.000s      0.001w      2 calls
HF: Form S/X                        :      0.000u      0.000s      0.000w      2 calls
HF: Guess                           :      0.400u      0.000s      0.238w      2 calls
| SAD Guess                         :      0.367u      0.000s      0.222w      2 calls
HF: Form G                          :      0.000u      0.000s      0.001w     17 calls
| JK: D                             :      0.000u      0.000s      0.000w     17 calls
| JK: USO2AO                        :      0.000u      0.000s      0.000w     17 calls
| JK: JK                            :      0.000u      0.000s      0.001w     17 calls
| | DFH: compute_JK()               :      0.000u      0.000s      0.001w     17 calls
| | | DFH: Grabbing AOs             :      0.000u      0.000s      0.000w     17 calls
| | | DFH: compute_J                :      0.000u      0.000s      0.000w     17 calls
| | | DFH: compute_K                :      0.000u      0.000s      0.000w     17 calls
| JK: AO2USO                        :      0.000u      0.000s      0.000w     17 calls
HF: Form F                          :      0.000u      0.000s      0.000w     17 calls
HF: Form D                          :      0.000u      0.000s      0.000w     17 calls
HF: DIIS                            :      0.017u      0.000s      0.005w     15 calls
| DIISManager::add_entry            :      0.000u      0.000s      0.000w     15 calls
| DIISManager::extrapolate          :      0.000u      0.000s      0.001w     15 calls
| | bMatrix setup                   :      0.000u      0.000s      0.000w     15 calls
| | bMatrix pseudoinverse           :      0.000u      0.000s      0.000w     15 calls
| | New vector                      :      0.000u      0.000s      0.000w     15 calls
HF: Form C                          :      0.000u      0.000s      0.000w     15 calls

**************************************************************************************

Host: davis-ws

Timers On : Wed Jan  8 12:54:46 2020
Timers Off: Wed Jan  8 12:54:52 2020

Wall Time:        5.82 seconds

                                                       Time (seconds)
Module                                       User      System        Wall        Calls
DFH: sparsity prep                  :      0.033u      0.000s      0.021w      2 calls
DFH: initialize()                   :      0.133u      0.000s      0.066w      2 calls
DFH: AO Construction                :      0.000u      0.000s      0.001w      2 calls
DFH: AO-Met. Contraction            :      0.000u      0.000s      0.000w      2 calls
HF: Form core H                     :      0.000u      0.000s      0.001w      2 calls
HF: Form S/X                        :      0.000u      0.000s      0.000w      2 calls
HF: Guess                           :      0.367u      0.000s      0.235w      2 calls
SAD Guess                           :      0.367u      0.000s      0.219w      2 calls
HF: Form G                          :      0.000u      0.000s      0.001w     17 calls
JK: D                               :      0.000u      0.000s      0.000w     17 calls
JK: USO2AO                          :      0.000u      0.000s      0.000w     17 calls
JK: JK                              :      0.000u      0.000s      0.001w     17 calls
DFH: compute_JK()                   :      0.000u      0.000s      0.001w     17 calls
DFH: Grabbing AOs                   :      0.000u      0.000s      0.000w     17 calls
DFH: compute_J                      :      0.000u      0.000s      0.000w     17 calls
DFH: compute_K                      :      0.000u      0.000s      0.000w     17 calls
JK: AO2USO                          :      0.000u      0.000s      0.000w     17 calls
HF: Form F                          :      0.000u      0.000s      0.000w     17 calls
HF: Form D                          :      0.000u      0.000s      0.000w     17 calls
HF: DIIS                            :      0.017u      0.000s      0.005w     15 calls
DIISManager::add_entry              :      0.000u      0.000s      0.001w     15 calls
DIISManager::extrapolate            :      0.000u      0.000s      0.001w     15 calls
bMatrix setup                       :      0.000u      0.000s      0.000w     15 calls
bMatrix pseudoinverse               :      0.000u      0.000s      0.000w     15 calls
New vector                          :      0.000u      0.000s      0.000w     15 calls
HF: Form C                          :      0.000u      0.000s      0.000w     15 calls

--------------------------------------------------------------------------------------
DFH: sparsity prep                  :      0.033u      0.000s      0.021w      2 calls
DFH: initialize()                   :      0.133u      0.000s      0.066w      2 calls
| DFH: AO Construction              :      0.000u      0.000s      0.001w      2 calls
| DFH: AO-Met. Contraction          :      0.000u      0.000s      0.000w      2 calls
HF: Form core H                     :      0.000u      0.000s      0.001w      2 calls
HF: Form S/X                        :      0.000u      0.000s      0.000w      2 calls
HF: Guess                           :      0.367u      0.000s      0.235w      2 calls
| SAD Guess                         :      0.367u      0.000s      0.219w      2 calls
HF: Form G                          :      0.000u      0.000s      0.001w     17 calls
| JK: D                             :      0.000u      0.000s      0.000w     17 calls
| JK: USO2AO                        :      0.000u      0.000s      0.000w     17 calls
| JK: JK                            :      0.000u      0.000s      0.001w     17 calls
| | DFH: compute_JK()               :      0.000u      0.000s      0.001w     17 calls
| | | DFH: Grabbing AOs             :      0.000u      0.000s      0.000w     17 calls
| | | DFH: compute_J                :      0.000u      0.000s      0.000w     17 calls
| | | DFH: compute_K                :      0.000u      0.000s      0.000w     17 calls
| JK: AO2USO                        :      0.000u      0.000s      0.000w     17 calls
HF: Form F                          :      0.000u      0.000s      0.000w     17 calls
HF: Form D                          :      0.000u      0.000s      0.000w     17 calls
HF: DIIS                            :      0.017u      0.000s      0.005w     15 calls
| DIISManager::add_entry            :      0.000u      0.000s      0.001w     15 calls
| DIISManager::extrapolate          :      0.000u      0.000s      0.001w     15 calls
| | bMatrix setup                   :      0.000u      0.000s      0.000w     15 calls
| | bMatrix pseudoinverse           :      0.000u      0.000s      0.000w     15 calls
| | New vector                      :      0.000u      0.000s      0.000w     15 calls
HF: Form C                          :      0.000u      0.000s      0.000w     15 calls

**************************************************************************************

Host: davis-ws

Timers On : Wed Jan  8 12:55:00 2020
Timers Off: Wed Jan  8 12:55:27 2020

Wall Time:       27.14 seconds

                                                       Time (seconds)
Module                                       User      System        Wall        Calls
Total PK formation time             :      0.283u      0.000s      0.165w      8 calls
HF: Form core H                     :      0.000u      0.000s      0.003w      8 calls
HF: Form S/X                        :      0.000u      0.000s      0.000w      8 calls
HF: Guess                           :      1.383u      0.000s      0.833w      8 calls
SAD Guess                           :      1.267u      0.000s      0.770w      8 calls
HF: Form G                          :      0.000u      0.000s      0.002w     79 calls
JK: D                               :      0.000u      0.000s      0.000w     79 calls
JK: USO2AO                          :      0.000u      0.000s      0.000w     79 calls
JK: JK                              :      0.000u      0.000s      0.001w     79 calls
PK computes JK                      :      0.000u      0.000s      0.001w     79 calls
JK: AO2USO                          :      0.000u      0.000s      0.000w     79 calls
HF: Form F                          :      0.000u      0.000s      0.000w     79 calls
HF: Form D                          :      0.000u      0.000s      0.000w     79 calls
HF: DIIS                            :      0.033u      0.000s      0.027w     71 calls
DIISManager::add_entry              :      0.000u      0.000s      0.002w     71 calls
DIISManager::extrapolate            :      0.000u      0.000s      0.005w     71 calls
bMatrix setup                       :      0.000u      0.000s      0.002w     71 calls
bMatrix pseudoinverse               :      0.000u      0.000s      0.002w     71 calls
New vector                          :      0.000u      0.000s      0.001w     71 calls
HF: Form C                          :      0.000u      0.000s      0.002w     71 calls

--------------------------------------------------------------------------------------
Total PK formation time             :      0.283u      0.000s      0.165w      8 calls
HF: Form core H                     :      0.000u      0.000s      0.003w      8 calls
HF: Form S/X                        :      0.000u      0.000s      0.000w      8 calls
HF: Guess                           :      1.383u      0.000s      0.833w      8 calls
| SAD Guess                         :      1.267u      0.000s      0.770w      8 calls
HF: Form G                          :      0.000u      0.000s      0.002w     79 calls
| JK: D                             :      0.000u      0.000s      0.000w     79 calls
| JK: USO2AO                        :      0.000u      0.000s      0.000w     79 calls
| JK: JK                            :      0.000u      0.000s      0.001w     79 calls
| | PK computes JK                  :      0.000u      0.000s      0.001w     79 calls
| JK: AO2USO                        :      0.000u      0.000s      0.000w     79 calls
HF: Form F                          :      0.000u      0.000s      0.000w     79 calls
HF: Form D                          :      0.000u      0.000s      0.000w     79 calls
HF: DIIS                            :      0.033u      0.000s      0.027w     71 calls
| DIISManager::add_entry            :      0.000u      0.000s      0.002w     71 calls
| DIISManager::extrapolate          :      0.000u      0.000s      0.005w     71 calls
| | bMatrix setup                   :      0.000u      0.000s      0.002w     71 calls
| | bMatrix pseudoinverse           :      0.000u      0.000s      0.002w     71 calls
| | New vector                      :      0.000u      0.000s      0.001w     71 calls
HF: Form C                          :      0.000u      0.000s      0.002w     71 calls

**************************************************************************************

Host: davis-ws

Timers On : Wed Jan  8 12:55:47 2020
Timers Off: Wed Jan  8 12:55:51 2020

Wall Time:        4.28 seconds

                                                       Time (seconds)
Module                                       User      System        Wall        Calls
Total PK formation time             :      0.067u      0.000s      0.045w      2 calls
HF: Form core H                     :      0.000u      0.000s      0.001w      2 calls
HF: Form S/X                        :      0.000u      0.000s      0.000w      2 calls
HF: Guess                           :      0.417u      0.000s      0.242w      2 calls
SAD Guess                           :      0.383u      0.000s      0.226w      2 calls
HF: Form G                          :      0.000u      0.000s      0.001w     22 calls
JK: D                               :      0.000u      0.000s      0.000w     22 calls
JK: USO2AO                          :      0.000u      0.000s      0.000w     22 calls
JK: JK                              :      0.000u      0.000s      0.000w     22 calls
PK computes JK                      :      0.000u      0.000s      0.000w     22 calls
JK: AO2USO                          :      0.000u      0.000s      0.000w     22 calls
HF: Form F                          :      0.000u      0.000s      0.000w     22 calls
HF: Form D                          :      0.000u      0.000s      0.000w     22 calls
HF: DIIS                            :      0.000u      0.000s      0.007w     20 calls
DIISManager::add_entry              :      0.000u      0.000s      0.001w     20 calls
DIISManager::extrapolate            :      0.000u      0.000s      0.001w     20 calls
bMatrix setup                       :      0.000u      0.000s      0.000w     20 calls
bMatrix pseudoinverse               :      0.000u      0.000s      0.001w     20 calls
New vector                          :      0.000u      0.000s      0.000w     20 calls
HF: Form C                          :      0.000u      0.000s      0.001w     20 calls

--------------------------------------------------------------------------------------
Total PK formation time             :      0.067u      0.000s      0.045w      2 calls
HF: Form core H                     :      0.000u      0.000s      0.001w      2 calls
HF: Form S/X                        :      0.000u      0.000s      0.000w      2 calls
HF: Guess                           :      0.417u      0.000s      0.242w      2 calls
| SAD Guess                         :      0.383u      0.000s      0.226w      2 calls
HF: Form G                          :      0.000u      0.000s      0.001w     22 calls
| JK: D                             :      0.000u      0.000s      0.000w     22 calls
| JK: USO2AO                        :      0.000u      0.000s      0.000w     22 calls
| JK: JK                            :      0.000u      0.000s      0.000w     22 calls
| | PK computes JK                  :      0.000u      0.000s      0.000w     22 calls
| JK: AO2USO                        :      0.000u      0.000s      0.000w     22 calls
HF: Form F                          :      0.000u      0.000s      0.000w     22 calls
HF: Form D                          :      0.000u      0.000s      0.000w     22 calls
HF: DIIS                            :      0.000u      0.000s      0.007w     20 calls
| DIISManager::add_entry            :      0.000u      0.000s      0.001w     20 calls
| DIISManager::extrapolate          :      0.000u      0.000s      0.001w     20 calls
| | bMatrix setup                   :      0.000u      0.000s      0.000w     20 calls
| | bMatrix pseudoinverse           :      0.000u      0.000s      0.001w     20 calls
| | New vector                      :      0.000u      0.000s      0.000w     20 calls
HF: Form C                          :      0.000u      0.000s      0.001w     20 calls

**************************************************************************************

Host: davis-ws

Timers On : Wed Jan  8 13:04:31 2020
Timers Off: Wed Jan  8 13:04:37 2020

Wall Time:        5.80 seconds

                                                       Time (seconds)
Module                                       User      System        Wall        Calls
Total PK formation time             :      0.033u      0.000s      0.022w      1 calls
HF: Form core H                     :      0.000u      0.000s      0.000w      1 calls
HF: Form S/X                        :      0.000u      0.000s      0.000w      1 calls
HF: Guess                           :      0.200u      0.000s      0.119w      1 calls
SAD Guess                           :      0.183u      0.000s      0.111w      1 calls
HF: Form G                          :      0.000u      0.000s      0.000w     12 calls
JK: D                               :      0.000u      0.000s      0.000w     12 calls
JK: USO2AO                          :      0.000u      0.000s      0.000w     12 calls
JK: JK                              :      0.000u      0.000s      0.000w     12 calls
PK computes JK                      :      0.000u      0.000s      0.000w     12 calls
JK: AO2USO                          :      0.000u      0.000s      0.000w     12 calls
HF: Form F                          :      0.000u      0.000s      0.000w     12 calls
HF: Form D                          :      0.000u      0.000s      0.000w     12 calls
HF: DIIS                            :      0.017u      0.000s      0.004w     11 calls
DIISManager::add_entry              :      0.000u      0.000s      0.000w     11 calls
DIISManager::extrapolate            :      0.017u      0.000s      0.001w     11 calls
bMatrix setup                       :      0.000u      0.000s      0.000w     11 calls
bMatrix pseudoinverse               :      0.000u      0.000s      0.000w     11 calls
New vector                          :      0.017u      0.000s      0.000w     11 calls
HF: Form C                          :      0.000u      0.000s      0.000w     11 calls

--------------------------------------------------------------------------------------
Total PK formation time             :      0.033u      0.000s      0.022w      1 calls
HF: Form core H                     :      0.000u      0.000s      0.000w      1 calls
HF: Form S/X                        :      0.000u      0.000s      0.000w      1 calls
HF: Guess                           :      0.200u      0.000s      0.119w      1 calls
| SAD Guess                         :      0.183u      0.000s      0.111w      1 calls
HF: Form G                          :      0.000u      0.000s      0.000w     12 calls
| JK: D                             :      0.000u      0.000s      0.000w     12 calls
| JK: USO2AO                        :      0.000u      0.000s      0.000w     12 calls
| JK: JK                            :      0.000u      0.000s      0.000w     12 calls
| | PK computes JK                  :      0.000u      0.000s      0.000w     12 calls
| JK: AO2USO                        :      0.000u      0.000s      0.000w     12 calls
HF: Form F                          :      0.000u      0.000s      0.000w     12 calls
HF: Form D                          :      0.000u      0.000s      0.000w     12 calls
HF: DIIS                            :      0.017u      0.000s      0.004w     11 calls
| DIISManager::add_entry            :      0.000u      0.000s      0.000w     11 calls
| DIISManager::extrapolate          :      0.017u      0.000s      0.001w     11 calls
| | bMatrix setup                   :      0.000u      0.000s      0.000w     11 calls
| | bMatrix pseudoinverse           :      0.000u      0.000s      0.000w     11 calls
| | New vector                      :      0.017u      0.000s      0.000w     11 calls
HF: Form C                          :      0.000u      0.000s      0.000w     11 calls

**************************************************************************************
