
Host: penguin

Timers On : Thu Jan  2 09:04:09 2020
Timers Off: Thu Jan  2 09:04:10 2020

Wall Time:        1.07 seconds

                                                       Time (seconds)
Module                                       User      System        Wall        Calls

--------------------------------------------------------------------------------------

**************************************************************************************

Host: penguin

Timers On : Thu Jan  2 09:04:35 2020
Timers Off: Thu Jan  2 09:04:36 2020

Wall Time:        1.22 seconds

                                                       Time (seconds)
Module                                       User      System        Wall        Calls

--------------------------------------------------------------------------------------

**************************************************************************************

Host: penguin

Timers On : Thu Jan  2 09:04:39 2020
Timers Off: Thu Jan  2 09:04:46 2020

Wall Time:        6.98 seconds

                                                       Time (seconds)
Module                                       User      System        Wall        Calls

--------------------------------------------------------------------------------------

**************************************************************************************

Host: penguin

Timers On : Thu Jan  2 09:05:13 2020
Timers Off: Thu Jan  2 09:05:57 2020

Wall Time:       44.41 seconds

                                                       Time (seconds)
Module                                       User      System        Wall        Calls

--------------------------------------------------------------------------------------

**************************************************************************************

Host: penguin

Timers On : Thu Jan  2 09:06:05 2020
Timers Off: Thu Jan  2 09:06:07 2020

Wall Time:        2.38 seconds

                                                       Time (seconds)
Module                                       User      System        Wall        Calls

--------------------------------------------------------------------------------------

**************************************************************************************

Host: penguin

Timers On : Thu Jan  2 09:16:48 2020
Timers Off: Thu Jan  2 09:17:05 2020

Wall Time:       17.79 seconds

                                                       Time (seconds)
Module                                       User      System        Wall        Calls

--------------------------------------------------------------------------------------

**************************************************************************************
