
    -----------------------------------------------------------------------
          Psi4: An Open-Source Ab Initio Electronic Structure Package
                               Psi4 1.4a2.dev138 

                         Git: Rev {master} aa2bb28 


    R. M. Parrish, L. A. Burns, D. G. A. Smith, A. C. Simmonett,
    A. E. DePrince III, E. G. Hohenstein, U. Bozkaya, A. Yu. Sokolov,
    R. Di Remigio, R. M. Richard, J. F. Gonthier, A. M. James,
    H. R. McAlexander, A. Kumar, M. Saitow, X. Wang, B. P. Pritchard,
    P. Verma, H. F. Schaefer III, K. Patkowski, R. A. King, E. F. Valeev,
    F. A. Evangelista, J. M. Turney, T. D. Crawford, and C. D. Sherrill,
    J. Chem. Theory Comput. 13(7) pp 3185--3197 (2017).
    (doi: 10.1021/acs.jctc.7b00174)


                         Additional Contributions by
    P. Kraus, H. Kruse, M. H. Lechner, M. C. Schieber, R. A. Shaw,
    A. Alenaizan, R. Galvelis, Z. L. Glick, S. Lehtola, and J. P. Misiewicz

    -----------------------------------------------------------------------


    Psi4 started on: Monday, 20 January 2020 06:26PM

    Process ID: 10246
    Host:       ws-b14-mmd
    PSIDATADIR: /home/mmd01986/anaconda3/envs/psi4/share/psi4
    Memory:     500.0 MiB
    Threads:    1
    
  ==> Input File <==

--------------------------------------------------------------------------
memory 2 GB

molecule {
1 2
O
H 1 1.1
H 1 1.1 2 104.0
symmetry c1
}
set reference rohf
set D_CONVERGENCE 14
set e_convergence 14
set mp2_type conv
set scf_type pk
set ccenergy {
    diis false
}
energy('mp2/sto-3g')
--------------------------------------------------------------------------

  Memory set to   1.863 GiB by Python driver.

*** tstart() called on ws-b14-mmd
*** at Mon Jan 20 18:26:27 2020

   => Loading Basis Set <=

    Name: STO-3G
    Role: ORBITAL
    Keyword: BASIS
    atoms 1   entry O          line    81 file /home/mmd01986/anaconda3/envs/psi4/share/psi4/basis/sto-3g.gbs 
    atoms 2-3 entry H          line    19 file /home/mmd01986/anaconda3/envs/psi4/share/psi4/basis/sto-3g.gbs 


         ---------------------------------------------------------
                                   SCF
               by Justin Turney, Rob Parrish, Andy Simmonett
                          and Daniel G. A. Smith
                             ROHF Reference
                        1 Threads,   1907 MiB Core
         ---------------------------------------------------------

  ==> Geometry <==

    Molecular point group: c1
    Full point group: C2v

    Geometry (in Angstrom), charge = 1, multiplicity = 2:

       Center              X                  Y                   Z               Mass       
    ------------   -----------------  -----------------  -----------------  -----------------
         O            0.000000000000     0.000000000000    -0.075791843599    15.994914619570
         H            0.000000000000    -0.866811828967     0.601435779259     1.007825032230
         H            0.000000000000     0.866811828967     0.601435779259     1.007825032230

  Running in c1 symmetry.

  Rotational constants: A =     20.53324  B =     11.13094  C =      7.21807 [cm^-1]
  Rotational constants: A = 615570.98071  B = 333697.07813  C = 216392.23582 [MHz]
  Nuclear repulsion =    8.002366482173422

  Charge       = 1
  Multiplicity = 2
  Electrons    = 9
  Nalpha       = 5
  Nbeta        = 4

  ==> Algorithm <==

  SCF Algorithm Type is PK.
  DIIS enabled.
  MOM disabled.
  Fractional occupation disabled.
  Guess Type is SAD.
  Energy threshold   = 1.00e-14
  Density threshold  = 1.00e-14
  Integral threshold = 0.00e+00

  ==> Primary Basis <==

  Basis Set: STO-3G
    Blend: STO-3G
    Number of shells: 5
    Number of basis function: 7
    Number of Cartesian functions: 7
    Spherical Harmonics?: true
    Max angular momentum: 1

  ==> Pre-Iterations <==

   -------------------------------------------------------
    Irrep   Nso     Nmo     Nalpha   Nbeta   Ndocc  Nsocc
   -------------------------------------------------------
     A          7       7       0       0       0       0
   -------------------------------------------------------
    Total       7       7       5       4       4       1
   -------------------------------------------------------

  ==> Integral Setup <==

  Using in-core PK algorithm.
   Calculation information:
      Number of atoms:                   3
      Number of AO shells:               5
      Number of primitives:             15
      Number of atomic orbitals:         7
      Number of basis functions:         7

      Integral cutoff                 1.00e-12
      Number of threads:                 1

  Performing in-core PK
  Using 812 doubles for integral storage.
  We computed 120 shell quartets total.
  Whereas there are 120 unique shell quartets.

  ==> DiskJK: Disk-Based J/K Matrices <==

    J tasked:                  Yes
    K tasked:                  Yes
    wK tasked:                  No
    Memory [MiB]:             1430
    Schwarz Cutoff:          1E-12

    OpenMP threads:              1

  Minimum eigenvalue in the overlap matrix is 4.3422219609E-01.
  Using Symmetric Orthogonalization.

  SCF Guess: Superposition of Atomic Densities via on-the-fly atomic UHF.

  ==> Iterations <==

                        Total Energy        Delta E     RMS |[F,P]|

   @ROHF iter SAD:   -73.91840937239937   -7.39184e+01   0.00000e+00 
   @ROHF iter   1:   -74.64609371140311   -7.27684e-01   1.43109e-02 DIIS
   @ROHF iter   2:   -74.65874080578948   -1.26471e-02   2.36699e-03 DIIS
   @ROHF iter   3:   -74.65922888038483   -4.88075e-04   5.43776e-04 DIIS
   @ROHF iter   4:   -74.65925140419746   -2.25238e-05   4.47411e-05 DIIS
   @ROHF iter   5:   -74.65925170136245   -2.97165e-07   1.64679e-05 DIIS
   @ROHF iter   6:   -74.65925174710250   -4.57401e-08   7.39397e-08 DIIS
   @ROHF iter   7:   -74.65925174710303   -5.25802e-13   2.56737e-10 DIIS
   @ROHF iter   8:   -74.65925174710300    2.84217e-14   4.58003e-13 DIIS
   @ROHF iter   9:   -74.65925174710306   -5.68434e-14   8.94426e-16 DIIS
   @ROHF iter  10:   -74.65925174710303    2.84217e-14   7.53034e-16 DIIS
   @ROHF iter  11:   -74.65925174710299    4.26326e-14   3.97768e-16 DIIS
   @ROHF iter  12:   -74.65925174710301   -2.84217e-14   5.53506e-16 DIIS
   @ROHF iter  13:   -74.65925174710299    2.84217e-14   4.88184e-16 DIIS
   @ROHF iter  14:   -74.65925174710306   -7.10543e-14   8.09218e-16 DIIS
   @ROHF iter  15:   -74.65925174710303    2.84217e-14   4.38525e-16 DIIS
   @ROHF iter  16:   -74.65925174710294    8.52651e-14   3.34179e-16 DIIS
   @ROHF iter  17:   -74.65925174710299   -4.26326e-14   8.04958e-16 DIIS
   @ROHF iter  18:   -74.65925174710304   -5.68434e-14   6.10613e-16 DIIS
   @ROHF iter  19:   -74.65925174710301    2.84217e-14   5.56766e-16 DIIS
   @ROHF iter  20:   -74.65925174710303   -1.42109e-14   4.76885e-16 DIIS
   @ROHF iter  21:   -74.65925174710301    1.42109e-14   4.43854e-16 DIIS
   @ROHF iter  22:   -74.65925174710299    2.84217e-14   5.11118e-16 DIIS
   @ROHF iter  23:   -74.65925174710301   -2.84217e-14   4.78693e-16 DIIS
   @ROHF iter  24:   -74.65925174710299    2.84217e-14   4.68828e-16 DIIS
   @ROHF iter  25:   -74.65925174710299    0.00000e+00   8.52989e-16 DIIS
  Energy and wave function converged.


  ==> Post-Iterations <==

    Orbital Energies [Eh]
    ---------------------

    Doubly Occupied:                                                      

       1A    -20.967059     2A     -1.745196     3A     -1.073135  
       4A     -0.980477  

    Singly Occupied:                                                      

       5A     -0.622051  

    Virtual:                                                              

       6A     -0.003035     7A      0.087366  

    Final Occupation by Irrep:
              A 
    DOCC [     4 ]
    SOCC [     1 ]

  @ROHF Final Energy:   -74.65925174710299

   => Energetics <=

    Nuclear Repulsion Energy =              8.0023664821734215
    One-Electron Energy =                -114.7293707413162309
    Two-Electron Energy =                  32.0677525120398172
    Total Energy =                        -74.6592517471029851

Computation Completed


Properties will be evaluated at   0.000000,   0.000000,   0.000000 [a0]

Properties computed using the SCF density matrix

  Nuclear Dipole Moment: [e a0]
     X:     0.0000      Y:     0.0000      Z:     1.1273

  Electronic Dipole Moment: [e a0]
     X:     0.0000      Y:    -0.0000      Z:     0.0310

  Dipole Moment: [e a0]
     X:     0.0000      Y:    -0.0000      Z:     1.1582     Total:     1.1582

  Dipole Moment: [D]
     X:     0.0000      Y:    -0.0000      Z:     2.9440     Total:     2.9440


*** tstop() called on ws-b14-mmd at Mon Jan 20 18:26:28 2020
Module time:
	user time   =       0.37 seconds =       0.01 minutes
	system time =       0.01 seconds =       0.00 minutes
	total time  =          1 seconds =       0.02 minutes
Total time:
	user time   =       0.37 seconds =       0.01 minutes
	system time =       0.01 seconds =       0.00 minutes
	total time  =          1 seconds =       0.02 minutes
 MINTS: Wrapper to libmints.
   by Justin Turney

   Calculation information:
      Number of threads:                 1
      Number of atoms:                   3
      Number of AO shells:               5
      Number of SO shells:               5
      Number of primitives:             15
      Number of atomic orbitals:         7
      Number of basis functions:         7

      Number of irreps:                  1
      Integral cutoff                 0.00e+00
      Number of functions per irrep: [   7 ]

 OEINTS: Overlap, kinetic, potential, dipole, and quadrupole integrals
         stored in file 35.

      Computing two-electron integrals...done
      Computed 231 non-zero two-electron integrals.
        Stored in file 33.


*** tstart() called on ws-b14-mmd
*** at Mon Jan 20 18:26:28 2020


 ============================================================================== 
 ============================================================================== 
 ============================================================================== 

                       MP2   
              Program Written by Ugur Bozkaya,
              Latest Revision June 25, 2014.

 ============================================================================== 
 ============================================================================== 
 ============================================================================== 

	RMS orbital gradient is changed to :     1.00e-09
	MAX orbital gradient is changed to :     1.00e-04
	MO spaces per irreps... 

	IRREP   FC   AOCC  BOCC  AVIR    BVIR  FV 
	==========================================
	   A     0     5     4     2      3     0
	==========================================

	Computing MP2 energy using SCF MOs (ROHF-MP2)... 
	============================================================================== 
	Nuclear Repulsion Energy (a.u.)    :     8.00236648217342
	SCF Energy (a.u.)                  :   -74.65925174710299
	REF Energy (a.u.)                  :   -74.65925174710299
	Alpha-Alpha Contribution (a.u.)    :    -0.00119753686587
	Alpha-Beta Contribution (a.u.)     :    -0.03422467528812
	Beta-Beta Contribution (a.u.)      :    -0.00121614384072
	Scaled_SS Correlation Energy (a.u.):    -0.00080456023553
	Scaled_OS Correlation Energy (a.u.):    -0.04106961034574
	SCS-MP2 Total Energy (a.u.)        :   -74.70112591768427
	SOS-MP2 Total Energy (a.u.)        :   -74.65925174710299
	SCSN-MP2 Total Energy (a.u.)       :   -74.66349982514659
	SCS-MP2-VDW Total Energy (a.u.)    :   -74.70426617182507
	SOS-PI-MP2 Total Energy (a.u.)     :   -74.70716629250636
	MP2 Singles Energy (a.u.)          :    -0.00097815819546
	MP2 Doubles Energy (a.u.)          :    -0.03663835599471
	MP2 Correlation Energy (a.u.)      :    -0.03761651419017
	MP2 Total Energy (a.u.)            :   -74.69686826129315
	============================================================================== 

*** tstop() called on ws-b14-mmd at Mon Jan 20 18:26:28 2020
Module time:
	user time   =       0.01 seconds =       0.00 minutes
	system time =       0.00 seconds =       0.00 minutes
	total time  =          0 seconds =       0.00 minutes
Total time:
	user time   =       0.40 seconds =       0.01 minutes
	system time =       0.01 seconds =       0.00 minutes
	total time  =          1 seconds =       0.02 minutes

    Psi4 stopped on: Monday, 20 January 2020 06:26PM
    Psi4 wall time for execution: 0:00:00.44

*** Psi4 exiting successfully. Buy a developer a beer!
