
    -----------------------------------------------------------------------
          Psi4: An Open-Source Ab Initio Electronic Structure Package
                               Psi4 1.4a2.dev138 

                         Git: Rev {master} aa2bb28 


    R. M. Parrish, L. A. Burns, D. G. A. Smith, A. C. Simmonett,
    A. E. DePrince III, E. G. Hohenstein, U. Bozkaya, A. Yu. Sokolov,
    R. Di Remigio, R. M. Richard, J. F. Gonthier, A. M. James,
    H. R. McAlexander, A. Kumar, M. Saitow, X. Wang, B. P. Pritchard,
    P. Verma, H. F. Schaefer III, K. Patkowski, R. A. King, E. F. Valeev,
    F. A. Evangelista, J. M. Turney, T. D. Crawford, and C. D. Sherrill,
    J. Chem. Theory Comput. 13(7) pp 3185--3197 (2017).
    (doi: 10.1021/acs.jctc.7b00174)


                         Additional Contributions by
    P. Kraus, H. Kruse, M. H. Lechner, M. C. Schieber, R. A. Shaw,
    A. Alenaizan, R. Galvelis, Z. L. Glick, S. Lehtola, and J. P. Misiewicz

    -----------------------------------------------------------------------


    Psi4 started on: Sunday, 26 January 2020 06:48AM

    Process ID: 431
    Host:       ws-b14-mmd
    PSIDATADIR: /home/mmd01986/anaconda3/envs/psi4/share/psi4
    Memory:     500.0 MiB
    Threads:    1
    
  ==> Input File <==

--------------------------------------------------------------------------
memory 2 GB

molecule {
0 1
pubchem:ethane
symmetry c1
}
set reference rohf
set D_CONVERGENCE 14
set e_convergence 14
set mp2_type conv
set scf_type pk
set ccenergy {
    diis false
}
energy('mp2/sto-3g')
--------------------------------------------------------------------------

  Memory set to   1.863 GiB by Python driver.

*** tstart() called on ws-b14-mmd
*** at Sun Jan 26 06:48:47 2020

   => Loading Basis Set <=

    Name: STO-3G
    Role: ORBITAL
    Keyword: BASIS
    atoms 1-2 entry C          line    61 file /home/mmd01986/anaconda3/envs/psi4/share/psi4/basis/sto-3g.gbs 
    atoms 3-8 entry H          line    19 file /home/mmd01986/anaconda3/envs/psi4/share/psi4/basis/sto-3g.gbs 


         ---------------------------------------------------------
                                   SCF
               by Justin Turney, Rob Parrish, Andy Simmonett
                          and Daniel G. A. Smith
                             ROHF Reference
                        1 Threads,   1907 MiB Core
         ---------------------------------------------------------

  ==> Geometry <==

    Molecular point group: c1
    Full point group: Ci

    Geometry (in Angstrom), charge = 0, multiplicity = 1:

       Center              X                  Y                   Z               Mass       
    ------------   -----------------  -----------------  -----------------  -----------------
         C           -0.756000000000     0.000000000000    -0.000000000000    12.000000000000
         C            0.756000000000     0.000000000000    -0.000000000000    12.000000000000
         H           -1.140400000000     0.658600000000     0.784500000000     1.007825032230
         H           -1.140400000000     0.350100000000    -0.962600000000     1.007825032230
         H           -1.140500000000    -1.008700000000     0.178100000000     1.007825032230
         H            1.140400000000    -0.350100000000     0.962600000000     1.007825032230
         H            1.140500000000     1.008700000000    -0.178100000000     1.007825032230
         H            1.140400000000    -0.658600000000    -0.784500000000     1.007825032230

  Running in c1 symmetry.

  Rotational constants: A =      2.65710  B =      0.68102  C =      0.68101 [cm^-1]
  Rotational constants: A =  79657.79535  B =  20416.39115  C =  20416.30469 [MHz]
  Nuclear repulsion =   42.427825594895381

  Charge       = 0
  Multiplicity = 1
  Electrons    = 18
  Nalpha       = 9
  Nbeta        = 9

  ==> Algorithm <==

  SCF Algorithm Type is PK.
  DIIS enabled.
  MOM disabled.
  Fractional occupation disabled.
  Guess Type is SAD.
  Energy threshold   = 1.00e-14
  Density threshold  = 1.00e-14
  Integral threshold = 0.00e+00

  ==> Primary Basis <==

  Basis Set: STO-3G
    Blend: STO-3G
    Number of shells: 12
    Number of basis function: 16
    Number of Cartesian functions: 16
    Spherical Harmonics?: true
    Max angular momentum: 1

  ==> Pre-Iterations <==

   -------------------------------------------------------
    Irrep   Nso     Nmo     Nalpha   Nbeta   Ndocc  Nsocc
   -------------------------------------------------------
     A         16      16       0       0       0       0
   -------------------------------------------------------
    Total      16      16       9       9       9       0
   -------------------------------------------------------

  ==> Integral Setup <==

  Using in-core PK algorithm.
   Calculation information:
      Number of atoms:                   8
      Number of AO shells:              12
      Number of primitives:             36
      Number of atomic orbitals:        16
      Number of basis functions:        16

      Integral cutoff                 1.00e-12
      Number of threads:                 1

  Performing in-core PK
  Using 18632 doubles for integral storage.
  We computed 3080 shell quartets total.
  Whereas there are 3081 unique shell quartets.

  ==> DiskJK: Disk-Based J/K Matrices <==

    J tasked:                  Yes
    K tasked:                  Yes
    wK tasked:                  No
    Memory [MiB]:             1430
    Schwarz Cutoff:          1E-12

    OpenMP threads:              1

  Minimum eigenvalue in the overlap matrix is 2.0522992036E-01.
  Using Symmetric Orthogonalization.

  SCF Guess: Superposition of Atomic Densities via on-the-fly atomic UHF.

  ==> Iterations <==

                        Total Energy        Delta E     RMS |[F,P]|

   @ROHF iter SAD:   -76.14870384587984   -7.61487e+01   0.00000e+00 
   @ROHF iter   1:   -78.30177429899550   -2.15307e+00   3.12263e-03 DIIS
   @ROHF iter   2:   -78.30512711490377   -3.35282e-03   6.19819e-04 DIIS
   @ROHF iter   3:   -78.30529926502550   -1.72150e-04   1.46970e-04 DIIS
   @ROHF iter   4:   -78.30530746755815   -8.20253e-06   5.34296e-06 DIIS
   @ROHF iter   5:   -78.30530748035704   -1.27989e-08   2.82028e-07 DIIS
   @ROHF iter   6:   -78.30530748038910   -3.20597e-11   2.49847e-08 DIIS
   @ROHF iter   7:   -78.30530748038936   -2.55795e-13   2.36568e-09 DIIS
   @ROHF iter   8:   -78.30530748038929    7.10543e-14   2.30889e-10 DIIS
   @ROHF iter   9:   -78.30530748038932   -2.84217e-14   1.23215e-11 DIIS
   @ROHF iter  10:   -78.30530748038939   -7.10543e-14   4.06289e-13 DIIS
   @ROHF iter  11:   -78.30530748038933    5.68434e-14   2.93997e-14 DIIS
   @ROHF iter  12:   -78.30530748038937   -4.26326e-14   9.30922e-15 DIIS
   @ROHF iter  13:   -78.30530748038930    7.10543e-14   3.71425e-15 DIIS
   @ROHF iter  14:   -78.30530748038942   -1.13687e-13   1.67625e-15 DIIS
   @ROHF iter  15:   -78.30530748038935    7.10543e-14   1.00906e-15 DIIS
   @ROHF iter  16:   -78.30530748038936   -1.42109e-14   9.71972e-16 DIIS
   @ROHF iter  17:   -78.30530748038930    5.68434e-14   4.78040e-16 DIIS
   @ROHF iter  18:   -78.30530748038936   -5.68434e-14   5.16219e-16 DIIS
   @ROHF iter  19:   -78.30530748038933    2.84217e-14   6.27929e-16 DIIS
   @ROHF iter  20:   -78.30530748038933    0.00000e+00   4.81434e-16 DIIS
  Energy and wave function converged.


  ==> Post-Iterations <==

    Orbital Energies [Eh]
    ---------------------

    Doubly Occupied:                                                      

       1A    -11.035779     2A    -11.035521     3A     -0.984990  
       4A     -0.805266     5A     -0.572934     6A     -0.572919  
       7A     -0.475560     8A     -0.454940     9A     -0.454930  

    Singly Occupied:                                                      

    

    Virtual:                                                              

      10A      0.645768    11A      0.645812    12A      0.709998  
      13A      0.724977    14A      0.775592    15A      0.785475  
      16A      0.785501  

    Final Occupation by Irrep:
              A 
    DOCC [     9 ]
    SOCC [     0 ]

  @ROHF Final Energy:   -78.30530748038933

   => Energetics <=

    Nuclear Repulsion Energy =             42.4278255948953813
    One-Electron Energy =                -188.6805879005150928
    Two-Electron Energy =                  67.9474548252303805
    Total Energy =                        -78.3053074803893310

Computation Completed


Properties will be evaluated at   0.000000,   0.000000,   0.000000 [a0]

Properties computed using the SCF density matrix

  Nuclear Dipole Moment: [e a0]
     X:     0.0000      Y:     0.0000      Z:     0.0000

  Electronic Dipole Moment: [e a0]
     X:     0.0000      Y:    -0.0000      Z:    -0.0000

  Dipole Moment: [e a0]
     X:     0.0000      Y:    -0.0000      Z:    -0.0000     Total:     0.0000

  Dipole Moment: [D]
     X:     0.0000      Y:    -0.0000      Z:    -0.0000     Total:     0.0000


*** tstop() called on ws-b14-mmd at Sun Jan 26 06:48:47 2020
Module time:
	user time   =       0.50 seconds =       0.01 minutes
	system time =       0.00 seconds =       0.00 minutes
	total time  =          0 seconds =       0.00 minutes
Total time:
	user time   =       0.50 seconds =       0.01 minutes
	system time =       0.00 seconds =       0.00 minutes
	total time  =          0 seconds =       0.00 minutes
 MINTS: Wrapper to libmints.
   by Justin Turney

   Calculation information:
      Number of threads:                 1
      Number of atoms:                   8
      Number of AO shells:              12
      Number of SO shells:              12
      Number of primitives:             36
      Number of atomic orbitals:        16
      Number of basis functions:        16

      Number of irreps:                  1
      Integral cutoff                 0.00e+00
      Number of functions per irrep: [  16 ]

 OEINTS: Overlap, kinetic, potential, dipole, and quadrupole integrals
         stored in file 35.

      Computing two-electron integrals...done
      Computed 9208 non-zero two-electron integrals.
        Stored in file 33.


*** tstart() called on ws-b14-mmd
*** at Sun Jan 26 06:48:47 2020



  Module OCC Options:
  ----------------------------------------------------------------------------
  ACTIVE                        => (empty)          
  BASIS_RELATIVISTIC            => (empty)          
  BENCH                         => (empty)          
  CACHELEVEL                    => (empty)          
  CCL_ENERGY                    => (empty)          
  CC_DIIS_MAX_VECS              => (empty)          
  CC_DIIS_MIN_VECS              => (empty)          
  CC_MAXITER                    => (empty)          
  CC_TYPE                       => (empty)          
  CEPA_OS_SCALE                 => (empty)          
  CEPA_SOS_SCALE                => (empty)          
  CEPA_SS_SCALE                 => (empty)          
  CEPA_TYPE                     => (empty)          
  CI_TYPE                       => (empty)          
  CUBEPROP_BASIS_FUNCTIONS      => (empty)          
  CUBEPROP_FILEPATH             => (empty)          
  CUBEPROP_ISOCONTOUR_THRESHOLD => (empty)          
  CUBEPROP_ORBITALS             => (empty)          
  CUBEPROP_TASKS                => (empty)          
  CUBIC_BASIS_TOLERANCE         => (empty)          
  CUBIC_BLOCK_MAX_POINTS        => (empty)          
  CUBIC_GRID_OVERAGE            => (empty)          
  CUBIC_GRID_SPACING            => (empty)          
  CUTOFF                        => (empty)          
  DEBUG                         => (empty)          
  DERTYPE                       => (empty)          
  DF_BASIS_CC                   => (empty)          
  DIE_IF_NOT_CONVERGED          => (empty)          
  DKH_ORDER                     => (empty)          
  DOCC                          => (empty)          
  DO_DIIS                       => (empty)          
  DO_LEVEL_SHIFT                => (empty)          
  DO_SCS                        => FALSE           !
  DO_SOS                        => FALSE           !
  E3_SCALE                      => (empty)          
  EA_POLES                      => (empty)          
  EKT_EA                        => (empty)          
  EKT_IP                        => (empty)          
  EP_EA_POLES                   => (empty)          
  EP_IP_POLES                   => (empty)          
  EP_MAXITER                    => (empty)          
  EXTERNAL_POTENTIAL_SYMMETRY   => (empty)          
  E_CONVERGENCE                 => 1e-14           !
  FREEZE_CORE                   => (empty)          
  FROZEN_DOCC                   => (empty)          
  FROZEN_UOCC                   => (empty)          
  INTEGRAL_PACKAGE              => (empty)          
  IP_POLES                      => (empty)          
  LEVEL_SHIFT                   => (empty)          
  LINEQ_SOLVER                  => (empty)          
  LITERAL_CFOUR                 => (empty)          
  MAT_NUM_COLUMN_PRINT          => (empty)          
  MAX_MOGRAD_CONVERGENCE        => (empty)          
  MOGRAD_DAMPING                => (empty)          
  MOLDEN_WITH_VIRTUAL           => (empty)          
  MO_DIIS_NUM_VECS              => (empty)          
  MO_MAXITER                    => (empty)          
  MO_READ                       => (empty)          
  MO_STEP_MAX                   => (empty)          
  MO_WRITE                      => (empty)          
  MP2_OS_SCALE                  => (empty)          
  MP2_SOS_SCALE                 => (empty)          
  MP2_SOS_SCALE2                => (empty)          
  MP2_SS_SCALE                  => (empty)          
  MP2_TYPE                      => CONV            !
  MP_TYPE                       => (empty)          
  NAT_ORBS                      => (empty)          
  NUM_FROZEN_DOCC               => (empty)          
  NUM_FROZEN_UOCC               => (empty)          
  NUM_GPUS                      => (empty)          
  OCC_ORBS_PRINT                => (empty)          
  OEPROP                        => (empty)          
  OPT_METHOD                    => (empty)          
  ORB_OPT                       => FALSE           !
  ORB_RESP_SOLVER               => (empty)          
  ORTH_TYPE                     => (empty)          
  PARENT_SYMMETRY               => (empty)          
  PCG_BETA_TYPE                 => (empty)          
  PCG_CONVERGENCE               => (empty)          
  PCG_MAXITER                   => (empty)          
  PCM                           => (empty)          
  PE                            => (empty)          
  PRINT                         => (empty)          
  PRINT_NOONS                   => (empty)          
  PROPERTIES                    => (empty)          
  PROPERTIES_ORIGIN             => (empty)          
  PUREAM                        => (empty)          
  QC_MODULE                     => (empty)          
  RAS1                          => (empty)          
  RAS2                          => (empty)          
  RAS3                          => (empty)          
  RAS4                          => (empty)          
  RELATIVISTIC                  => (empty)          
  RELAXED                       => (empty)          
  RESTRICTED_DOCC               => (empty)          
  RESTRICTED_UOCC               => (empty)          
  RMS_MOGRAD_CONVERGENCE        => (empty)          
  R_CONVERGENCE                 => (empty)          
  SCF_TYPE                      => PK              !
  SCS_TYPE                      => (empty)          
  SOCC                          => (empty)          
  SOS_TYPE                      => (empty)          
  SYMMETRIZE                    => (empty)          
  TPDM_ABCD_TYPE                => (empty)          
  WFN                           => (empty)          
  WFN_TYPE                      => OMP2            !
  WRITER_FILE_LABEL             => (empty)          


 ============================================================================== 
 ============================================================================== 
 ============================================================================== 

                       MP2   
              Program Written by Ugur Bozkaya,
              Latest Revision June 25, 2014.

 ============================================================================== 
 ============================================================================== 
 ============================================================================== 

	RMS orbital gradient is changed to :     1.00e-09
	MAX orbital gradient is changed to :     1.00e-04
	MO spaces per irreps... 

	IRREP   FC   AOCC  BOCC  AVIR    BVIR  FV 
	==========================================
	   A     0     9     9     7      7     0
	==========================================

	Computing MP2 energy using SCF MOs (ROHF-MP2)... 
	============================================================================== 
	Nuclear Repulsion Energy (a.u.)    :    42.42782559489538
	SCF Energy (a.u.)                  :   -78.30530748038933
	REF Energy (a.u.)                  :   -78.30530748038933
	Alpha-Alpha Contribution (a.u.)    :    -0.00427632859996
	Alpha-Beta Contribution (a.u.)     :    -0.09868315638032
	Beta-Beta Contribution (a.u.)      :    -0.00427632859996
	Scaled_SS Correlation Energy (a.u.):    -0.00285088573331
	Scaled_OS Correlation Energy (a.u.):    -0.11841978765639
	SCS-MP2 Total Energy (a.u.)        :   -78.42657815377900
	SOS-MP2 Total Energy (a.u.)        :   -78.30530748038933
	SCSN-MP2 Total Energy (a.u.)       :   -78.32036015706120
	SCS-MP2-VDW Total Energy (a.u.)    :   -78.43589824915610
	SOS-PI-MP2 Total Energy (a.u.)     :   -78.44346389932178
	MP2 Singles Energy (a.u.)          :    -0.00000000000000
	MP2 Doubles Energy (a.u.)          :    -0.10723581358025
	MP2 Correlation Energy (a.u.)      :    -0.10723581358025
	MP2 Total Energy (a.u.)            :   -78.41254329396958
	============================================================================== 

*** tstop() called on ws-b14-mmd at Sun Jan 26 06:48:47 2020
Module time:
	user time   =       0.01 seconds =       0.00 minutes
	system time =       0.02 seconds =       0.00 minutes
	total time  =          0 seconds =       0.00 minutes
Total time:
	user time   =       0.54 seconds =       0.01 minutes
	system time =       0.02 seconds =       0.00 minutes
	total time  =          0 seconds =       0.00 minutes

    Psi4 stopped on: Sunday, 26 January 2020 06:48AM
    Psi4 wall time for execution: 0:00:01.33

*** Psi4 exiting successfully. Buy a developer a beer!
