
Host: penguin

Timers On : Sun Jan  5 19:12:08 2020
Timers Off: Sun Jan  5 19:12:09 2020

Wall Time:        1.00 seconds

                                                       Time (seconds)
Module                                       User      System        Wall        Calls
DFH: sparsity prep                  :      0.017u      0.000s      0.016w      1 calls
DFH: initialize()                   :      0.083u      0.000s      0.051w      1 calls
DFH: AO Construction                :      0.000u      0.000s      0.001w      1 calls
DFH: AO-Met. Contraction            :      0.000u      0.000s      0.000w      1 calls
HF: Form core H                     :      0.000u      0.000s      0.001w      1 calls
HF: Form S/X                        :      0.000u      0.000s      0.000w      1 calls
HF: Guess                           :      0.300u      0.000s      0.186w      1 calls
SAD Guess                           :      0.283u      0.000s      0.173w      1 calls
HF: Form G                          :      0.000u      0.000s      0.001w      8 calls
JK: D                               :      0.000u      0.000s      0.000w      8 calls
JK: USO2AO                          :      0.000u      0.000s      0.000w      8 calls
JK: JK                              :      0.000u      0.000s      0.001w      8 calls
DFH: compute_JK()                   :      0.000u      0.000s      0.001w      8 calls
DFH: Grabbing AOs                   :      0.000u      0.000s      0.000w      8 calls
DFH: compute_J                      :      0.000u      0.000s      0.000w      8 calls
DFH: compute_K                      :      0.000u      0.000s      0.000w      8 calls
JK: AO2USO                          :      0.000u      0.000s      0.000w      8 calls
HF: Form F                          :      0.000u      0.000s      0.000w      8 calls
HF: Form D                          :      0.000u      0.000s      0.000w      8 calls
HF: DIIS                            :      0.017u      0.000s      0.004w      7 calls
DIISManager::add_entry              :      0.000u      0.000s      0.000w      7 calls
DIISManager::extrapolate            :      0.000u      0.000s      0.001w      7 calls
bMatrix setup                       :      0.000u      0.000s      0.000w      7 calls
bMatrix pseudoinverse               :      0.000u      0.000s      0.000w      7 calls
New vector                          :      0.000u      0.000s      0.000w      7 calls
HF: Form C                          :      0.000u      0.000s      0.000w      7 calls
DFMP2 Singles                       :      0.000u      0.000s      0.000w      1 calls
DFMP2 Aia                           :      0.067u      0.000s      0.076w      1 calls
DFMP2 (A|mn)                        :      0.017u      0.000s      0.041w      1 calls
DFMP2 (A|mn)C_mi                    :      0.000u      0.000s      0.000w      1 calls
DFMP2 (A|mi)C_na                    :      0.000u      0.000s      0.000w      1 calls
DFMP2 Aia Write                     :      0.000u      0.000s      0.000w      1 calls
DFMP2 Qia                           :      0.083u      0.017s      0.124w      1 calls
DFMP2 Metric                        :      0.083u      0.017s      0.122w      1 calls
DFMP2 Aia Read                      :      0.000u      0.000s      0.001w      1 calls
DFMP2 (Q|A)(A|ia)                   :      0.000u      0.000s      0.000w      1 calls
DFMP2 Qia Write                     :      0.000u      0.000s      0.000w      1 calls
DFMP2 Energy                        :      0.000u      0.000s      0.000w      1 calls
DFMP2 Qia Read                      :      0.000u      0.000s      0.000w      2 calls

--------------------------------------------------------------------------------------
DFH: sparsity prep                  :      0.017u      0.000s      0.016w      1 calls
DFH: initialize()                   :      0.083u      0.000s      0.051w      1 calls
| DFH: AO Construction              :      0.000u      0.000s      0.001w      1 calls
| DFH: AO-Met. Contraction          :      0.000u      0.000s      0.000w      1 calls
HF: Form core H                     :      0.000u      0.000s      0.001w      1 calls
HF: Form S/X                        :      0.000u      0.000s      0.000w      1 calls
HF: Guess                           :      0.300u      0.000s      0.186w      1 calls
| SAD Guess                         :      0.283u      0.000s      0.173w      1 calls
HF: Form G                          :      0.000u      0.000s      0.001w      8 calls
| JK: D                             :      0.000u      0.000s      0.000w      8 calls
| JK: USO2AO                        :      0.000u      0.000s      0.000w      8 calls
| JK: JK                            :      0.000u      0.000s      0.001w      8 calls
| | DFH: compute_JK()               :      0.000u      0.000s      0.001w      8 calls
| | | DFH: Grabbing AOs             :      0.000u      0.000s      0.000w      8 calls
| | | DFH: compute_J                :      0.000u      0.000s      0.000w      8 calls
| | | DFH: compute_K                :      0.000u      0.000s      0.000w      8 calls
| JK: AO2USO                        :      0.000u      0.000s      0.000w      8 calls
HF: Form F                          :      0.000u      0.000s      0.000w      8 calls
HF: Form D                          :      0.000u      0.000s      0.000w      8 calls
HF: DIIS                            :      0.017u      0.000s      0.004w      7 calls
| DIISManager::add_entry            :      0.000u      0.000s      0.000w      7 calls
| DIISManager::extrapolate          :      0.000u      0.000s      0.001w      7 calls
| | bMatrix setup                   :      0.000u      0.000s      0.000w      7 calls
| | bMatrix pseudoinverse           :      0.000u      0.000s      0.000w      7 calls
| | New vector                      :      0.000u      0.000s      0.000w      7 calls
HF: Form C                          :      0.000u      0.000s      0.000w      7 calls
DFMP2 Singles                       :      0.000u      0.000s      0.000w      1 calls
DFMP2 Aia                           :      0.067u      0.000s      0.076w      1 calls
| DFMP2 (A|mn)                      :      0.017u      0.000s      0.041w      1 calls
| DFMP2 (A|mn)C_mi                  :      0.000u      0.000s      0.000w      1 calls
| DFMP2 (A|mi)C_na                  :      0.000u      0.000s      0.000w      1 calls
| DFMP2 Aia Write                   :      0.000u      0.000s      0.000w      1 calls
DFMP2 Qia                           :      0.083u      0.017s      0.124w      1 calls
| DFMP2 Metric                      :      0.083u      0.017s      0.122w      1 calls
| DFMP2 Aia Read                    :      0.000u      0.000s      0.001w      1 calls
| DFMP2 (Q|A)(A|ia)                 :      0.000u      0.000s      0.000w      1 calls
| DFMP2 Qia Write                   :      0.000u      0.000s      0.000w      1 calls
DFMP2 Energy                        :      0.000u      0.000s      0.000w      1 calls
| DFMP2 Qia Read                    :      0.000u      0.000s      0.000w      2 calls

**************************************************************************************

Host: penguin

Timers On : Sun Jan  5 19:12:54 2020
Timers Off: Sun Jan  5 19:12:55 2020

Wall Time:        1.01 seconds

                                                       Time (seconds)
Module                                       User      System        Wall        Calls
DFH: sparsity prep                  :      0.017u      0.000s      0.017w      1 calls
DFH: initialize()                   :      0.083u      0.000s      0.054w      1 calls
DFH: AO Construction                :      0.000u      0.000s      0.001w      1 calls
DFH: AO-Met. Contraction            :      0.000u      0.000s      0.000w      1 calls
HF: Form core H                     :      0.000u      0.000s      0.001w      1 calls
HF: Form S/X                        :      0.000u      0.000s      0.000w      1 calls
HF: Guess                           :      0.317u      0.000s      0.190w      1 calls
SAD Guess                           :      0.300u      0.000s      0.178w      1 calls
HF: Form G                          :      0.000u      0.000s      0.001w      9 calls
JK: D                               :      0.000u      0.000s      0.000w      9 calls
JK: USO2AO                          :      0.000u      0.000s      0.000w      9 calls
JK: JK                              :      0.000u      0.000s      0.001w      9 calls
DFH: compute_JK()                   :      0.000u      0.000s      0.001w      9 calls
DFH: Grabbing AOs                   :      0.000u      0.000s      0.000w      9 calls
DFH: compute_J                      :      0.000u      0.000s      0.000w      9 calls
DFH: compute_K                      :      0.000u      0.000s      0.000w      9 calls
JK: AO2USO                          :      0.000u      0.000s      0.000w      9 calls
HF: Form F                          :      0.000u      0.000s      0.000w      9 calls
HF: Form D                          :      0.000u      0.000s      0.000w      9 calls
HF: DIIS                            :      0.000u      0.000s      0.005w      8 calls
DIISManager::add_entry              :      0.000u      0.000s      0.001w      8 calls
DIISManager::extrapolate            :      0.000u      0.000s      0.001w      8 calls
bMatrix setup                       :      0.000u      0.000s      0.000w      8 calls
bMatrix pseudoinverse               :      0.000u      0.000s      0.000w      8 calls
New vector                          :      0.000u      0.000s      0.000w      8 calls
HF: Form C                          :      0.000u      0.000s      0.000w      8 calls
DFMP2 Singles                       :      0.000u      0.000s      0.000w      1 calls
DFMP2 Aia                           :      0.050u      0.000s      0.036w      1 calls
DFMP2 (A|mn)                        :      0.000u      0.000s      0.002w      1 calls
DFMP2 (A|mn)C_mi                    :      0.000u      0.000s      0.000w      1 calls
DFMP2 (A|mi)C_na                    :      0.000u      0.000s      0.000w      1 calls
DFMP2 Aia Write                     :      0.000u      0.000s      0.000w      1 calls
DFMP2 Qia                           :      0.100u      0.000s      0.060w      1 calls
DFMP2 Metric                        :      0.100u      0.000s      0.059w      1 calls
DFMP2 Aia Read                      :      0.000u      0.000s      0.001w      1 calls
DFMP2 (Q|A)(A|ia)                   :      0.000u      0.000s      0.000w      1 calls
DFMP2 Qia Write                     :      0.000u      0.000s      0.000w      1 calls
DFMP2 Energy                        :      0.000u      0.000s      0.000w      1 calls
DFMP2 Qia Read                      :      0.000u      0.000s      0.000w      2 calls

--------------------------------------------------------------------------------------
DFH: sparsity prep                  :      0.017u      0.000s      0.017w      1 calls
DFH: initialize()                   :      0.083u      0.000s      0.054w      1 calls
| DFH: AO Construction              :      0.000u      0.000s      0.001w      1 calls
| DFH: AO-Met. Contraction          :      0.000u      0.000s      0.000w      1 calls
HF: Form core H                     :      0.000u      0.000s      0.001w      1 calls
HF: Form S/X                        :      0.000u      0.000s      0.000w      1 calls
HF: Guess                           :      0.317u      0.000s      0.190w      1 calls
| SAD Guess                         :      0.300u      0.000s      0.178w      1 calls
HF: Form G                          :      0.000u      0.000s      0.001w      9 calls
| JK: D                             :      0.000u      0.000s      0.000w      9 calls
| JK: USO2AO                        :      0.000u      0.000s      0.000w      9 calls
| JK: JK                            :      0.000u      0.000s      0.001w      9 calls
| | DFH: compute_JK()               :      0.000u      0.000s      0.001w      9 calls
| | | DFH: Grabbing AOs             :      0.000u      0.000s      0.000w      9 calls
| | | DFH: compute_J                :      0.000u      0.000s      0.000w      9 calls
| | | DFH: compute_K                :      0.000u      0.000s      0.000w      9 calls
| JK: AO2USO                        :      0.000u      0.000s      0.000w      9 calls
HF: Form F                          :      0.000u      0.000s      0.000w      9 calls
HF: Form D                          :      0.000u      0.000s      0.000w      9 calls
HF: DIIS                            :      0.000u      0.000s      0.005w      8 calls
| DIISManager::add_entry            :      0.000u      0.000s      0.001w      8 calls
| DIISManager::extrapolate          :      0.000u      0.000s      0.001w      8 calls
| | bMatrix setup                   :      0.000u      0.000s      0.000w      8 calls
| | bMatrix pseudoinverse           :      0.000u      0.000s      0.000w      8 calls
| | New vector                      :      0.000u      0.000s      0.000w      8 calls
HF: Form C                          :      0.000u      0.000s      0.000w      8 calls
DFMP2 Singles                       :      0.000u      0.000s      0.000w      1 calls
DFMP2 Aia                           :      0.050u      0.000s      0.036w      1 calls
| DFMP2 (A|mn)                      :      0.000u      0.000s      0.002w      1 calls
| DFMP2 (A|mn)C_mi                  :      0.000u      0.000s      0.000w      1 calls
| DFMP2 (A|mi)C_na                  :      0.000u      0.000s      0.000w      1 calls
| DFMP2 Aia Write                   :      0.000u      0.000s      0.000w      1 calls
DFMP2 Qia                           :      0.100u      0.000s      0.060w      1 calls
| DFMP2 Metric                      :      0.100u      0.000s      0.059w      1 calls
| DFMP2 Aia Read                    :      0.000u      0.000s      0.001w      1 calls
| DFMP2 (Q|A)(A|ia)                 :      0.000u      0.000s      0.000w      1 calls
| DFMP2 Qia Write                   :      0.000u      0.000s      0.000w      1 calls
DFMP2 Energy                        :      0.000u      0.000s      0.000w      1 calls
| DFMP2 Qia Read                    :      0.000u      0.000s      0.000w      2 calls

**************************************************************************************

Host: penguin

Timers On : Sun Jan  5 19:42:38 2020
Timers Off: Sun Jan  5 19:42:39 2020

Wall Time:        0.89 seconds

                                                       Time (seconds)
Module                                       User      System        Wall        Calls
DFH: sparsity prep                  :      0.017u      0.000s      0.016w      1 calls
DFH: initialize()                   :      0.083u      0.017s      0.051w      1 calls
DFH: AO Construction                :      0.000u      0.000s      0.001w      1 calls
DFH: AO-Met. Contraction            :      0.000u      0.000s      0.000w      1 calls
HF: Form core H                     :      0.000u      0.000s      0.001w      1 calls
HF: Form S/X                        :      0.000u      0.000s      0.000w      1 calls
HF: Guess                           :      0.300u      0.000s      0.186w      1 calls
SAD Guess                           :      0.283u      0.000s      0.174w      1 calls
HF: Form G                          :      0.017u      0.000s      0.002w     13 calls
JK: D                               :      0.000u      0.000s      0.000w     13 calls
JK: USO2AO                          :      0.000u      0.000s      0.000w     13 calls
JK: JK                              :      0.017u      0.000s      0.001w     13 calls
DFH: compute_JK()                   :      0.017u      0.000s      0.001w     13 calls
DFH: Grabbing AOs                   :      0.000u      0.000s      0.000w     13 calls
DFH: compute_J                      :      0.000u      0.000s      0.000w     13 calls
DFH: compute_K                      :      0.000u      0.000s      0.000w     13 calls
JK: AO2USO                          :      0.000u      0.000s      0.000w     13 calls
HF: Form F                          :      0.000u      0.000s      0.000w     13 calls
HF: Form D                          :      0.000u      0.000s      0.000w     13 calls
HF: DIIS                            :      0.017u      0.000s      0.007w     12 calls
DIISManager::add_entry              :      0.000u      0.000s      0.001w     12 calls
DIISManager::extrapolate            :      0.017u      0.000s      0.001w     12 calls
bMatrix setup                       :      0.017u      0.000s      0.000w     12 calls
bMatrix pseudoinverse               :      0.000u      0.000s      0.000w     12 calls
New vector                          :      0.000u      0.000s      0.000w     12 calls
HF: Form C                          :      0.000u      0.000s      0.001w     12 calls
DFMP2 Singles                       :      0.000u      0.000s      0.000w      1 calls
DFMP2 Aia                           :      0.083u      0.017s      0.043w      1 calls
DFMP2 (A|mn)                        :      0.017u      0.017s      0.006w      1 calls
DFMP2 (A|mn)C_mi                    :      0.000u      0.000s      0.000w      2 calls
DFMP2 (A|mi)C_na                    :      0.000u      0.000s      0.000w      2 calls
DFMP2 Aia Write                     :      0.000u      0.000s      0.000w      2 calls
DFMP2 Qia                           :      0.067u      0.000s      0.045w      1 calls
DFMP2 Metric                        :      0.067u      0.000s      0.043w      1 calls
DFMP2 Aia Read                      :      0.000u      0.000s      0.001w      2 calls
DFMP2 (Q|A)(A|ia)                   :      0.000u      0.000s      0.000w      2 calls
DFMP2 Qia Write                     :      0.000u      0.000s      0.000w      2 calls
DFMP2 Energy                        :      0.000u      0.000s      0.001w      1 calls
DFMP2 Qia Read                      :      0.000u      0.000s      0.000w      6 calls

--------------------------------------------------------------------------------------
DFH: sparsity prep                  :      0.017u      0.000s      0.016w      1 calls
DFH: initialize()                   :      0.083u      0.017s      0.051w      1 calls
| DFH: AO Construction              :      0.000u      0.000s      0.001w      1 calls
| DFH: AO-Met. Contraction          :      0.000u      0.000s      0.000w      1 calls
HF: Form core H                     :      0.000u      0.000s      0.001w      1 calls
HF: Form S/X                        :      0.000u      0.000s      0.000w      1 calls
HF: Guess                           :      0.300u      0.000s      0.186w      1 calls
| SAD Guess                         :      0.283u      0.000s      0.174w      1 calls
HF: Form G                          :      0.017u      0.000s      0.002w     13 calls
| JK: D                             :      0.000u      0.000s      0.000w     13 calls
| JK: USO2AO                        :      0.000u      0.000s      0.000w     13 calls
| JK: JK                            :      0.017u      0.000s      0.001w     13 calls
| | DFH: compute_JK()               :      0.017u      0.000s      0.001w     13 calls
| | | DFH: Grabbing AOs             :      0.000u      0.000s      0.000w     13 calls
| | | DFH: compute_J                :      0.000u      0.000s      0.000w     13 calls
| | | DFH: compute_K                :      0.000u      0.000s      0.000w     13 calls
| JK: AO2USO                        :      0.000u      0.000s      0.000w     13 calls
HF: Form F                          :      0.000u      0.000s      0.000w     13 calls
HF: Form D                          :      0.000u      0.000s      0.000w     13 calls
HF: DIIS                            :      0.017u      0.000s      0.007w     12 calls
| DIISManager::add_entry            :      0.000u      0.000s      0.001w     12 calls
| DIISManager::extrapolate          :      0.017u      0.000s      0.001w     12 calls
| | bMatrix setup                   :      0.017u      0.000s      0.000w     12 calls
| | bMatrix pseudoinverse           :      0.000u      0.000s      0.000w     12 calls
| | New vector                      :      0.000u      0.000s      0.000w     12 calls
HF: Form C                          :      0.000u      0.000s      0.001w     12 calls
DFMP2 Singles                       :      0.000u      0.000s      0.000w      1 calls
DFMP2 Aia                           :      0.083u      0.017s      0.043w      1 calls
| DFMP2 (A|mn)                      :      0.017u      0.017s      0.006w      1 calls
| DFMP2 (A|mn)C_mi                  :      0.000u      0.000s      0.000w      2 calls
| DFMP2 (A|mi)C_na                  :      0.000u      0.000s      0.000w      2 calls
| DFMP2 Aia Write                   :      0.000u      0.000s      0.000w      2 calls
DFMP2 Qia                           :      0.067u      0.000s      0.045w      1 calls
| DFMP2 Metric                      :      0.067u      0.000s      0.043w      1 calls
| DFMP2 Aia Read                    :      0.000u      0.000s      0.001w      2 calls
| DFMP2 (Q|A)(A|ia)                 :      0.000u      0.000s      0.000w      2 calls
| DFMP2 Qia Write                   :      0.000u      0.000s      0.000w      2 calls
DFMP2 Energy                        :      0.000u      0.000s      0.001w      1 calls
| DFMP2 Qia Read                    :      0.000u      0.000s      0.000w      6 calls

**************************************************************************************

Host: penguin

Timers On : Sun Jan  5 19:44:50 2020
Timers Off: Sun Jan  5 19:44:50 2020

Wall Time:        0.65 seconds

                                                       Time (seconds)
Module                                       User      System        Wall        Calls
Total PK formation time             :      0.050u      0.000s      0.034w      1 calls
HF: Form core H                     :      0.000u      0.000s      0.001w      1 calls
HF: Form S/X                        :      0.000u      0.000s      0.000w      1 calls
HF: Guess                           :      0.300u      0.000s      0.176w      1 calls
SAD Guess                           :      0.267u      0.000s      0.164w      1 calls
HF: Form G                          :      0.000u      0.000s      0.001w     13 calls
JK: D                               :      0.000u      0.000s      0.000w     13 calls
JK: USO2AO                          :      0.000u      0.000s      0.000w     13 calls
JK: JK                              :      0.000u      0.000s      0.000w     13 calls
PK computes JK                      :      0.000u      0.000s      0.000w     13 calls
JK: AO2USO                          :      0.000u      0.000s      0.000w     13 calls
HF: Form F                          :      0.000u      0.000s      0.000w     13 calls
HF: Form D                          :      0.000u      0.000s      0.000w     13 calls
HF: DIIS                            :      0.017u      0.000s      0.007w     12 calls
DIISManager::add_entry              :      0.000u      0.000s      0.001w     12 calls
DIISManager::extrapolate            :      0.000u      0.000s      0.001w     12 calls
bMatrix setup                       :      0.000u      0.000s      0.001w     12 calls
bMatrix pseudoinverse               :      0.000u      0.000s      0.000w     12 calls
New vector                          :      0.000u      0.000s      0.000w     12 calls
HF: Form C                          :      0.000u      0.000s      0.001w     12 calls
trans_ints                          :      0.017u      0.000s      0.004w      1 calls
Trans (OV|OV)                       :      0.000u      0.000s      0.003w      1 calls
Sort chem -> phys                   :      0.017u      0.000s      0.000w      1 calls
Sort (OV|OV) -> <OO|VV>             :      0.017u      0.000s      0.000w      1 calls
Antisymmetrize integrals            :      0.000u      0.000s      0.000w      1 calls
Make <OO||VV>                       :      0.000u      0.000s      0.000w      1 calls
Trans OEI                           :      0.000u      0.000s      0.000w      1 calls
Build Denominators                  :      0.000u      0.000s      0.000w      1 calls
T2(1)                               :      0.000u      0.000s      0.000w      1 calls
MP2 Energy                          :      0.000u      0.000s      0.000w      1 calls

--------------------------------------------------------------------------------------
Total PK formation time             :      0.050u      0.000s      0.034w      1 calls
HF: Form core H                     :      0.000u      0.000s      0.001w      1 calls
HF: Form S/X                        :      0.000u      0.000s      0.000w      1 calls
HF: Guess                           :      0.300u      0.000s      0.176w      1 calls
| SAD Guess                         :      0.267u      0.000s      0.164w      1 calls
HF: Form G                          :      0.000u      0.000s      0.001w     13 calls
| JK: D                             :      0.000u      0.000s      0.000w     13 calls
| JK: USO2AO                        :      0.000u      0.000s      0.000w     13 calls
| JK: JK                            :      0.000u      0.000s      0.000w     13 calls
| | PK computes JK                  :      0.000u      0.000s      0.000w     13 calls
| JK: AO2USO                        :      0.000u      0.000s      0.000w     13 calls
HF: Form F                          :      0.000u      0.000s      0.000w     13 calls
HF: Form D                          :      0.000u      0.000s      0.000w     13 calls
HF: DIIS                            :      0.017u      0.000s      0.007w     12 calls
| DIISManager::add_entry            :      0.000u      0.000s      0.001w     12 calls
| DIISManager::extrapolate          :      0.000u      0.000s      0.001w     12 calls
| | bMatrix setup                   :      0.000u      0.000s      0.001w     12 calls
| | bMatrix pseudoinverse           :      0.000u      0.000s      0.000w     12 calls
| | New vector                      :      0.000u      0.000s      0.000w     12 calls
HF: Form C                          :      0.000u      0.000s      0.001w     12 calls
trans_ints                          :      0.017u      0.000s      0.004w      1 calls
| Trans (OV|OV)                     :      0.000u      0.000s      0.003w      1 calls
| Sort chem -> phys                 :      0.017u      0.000s      0.000w      1 calls
| | Sort (OV|OV) -> <OO|VV>         :      0.017u      0.000s      0.000w      1 calls
| Antisymmetrize integrals          :      0.000u      0.000s      0.000w      1 calls
| | Make <OO||VV>                   :      0.000u      0.000s      0.000w      1 calls
| Trans OEI                         :      0.000u      0.000s      0.000w      1 calls
| Build Denominators                :      0.000u      0.000s      0.000w      1 calls
T2(1)                               :      0.000u      0.000s      0.000w      1 calls
MP2 Energy                          :      0.000u      0.000s      0.000w      1 calls

**************************************************************************************

Host: davis-ws

Timers On : Mon Jan  6 10:52:20 2020
Timers Off: Mon Jan  6 10:52:20 2020

Wall Time:        0.23 seconds

                                                       Time (seconds)
Module                                       User      System        Wall        Calls

--------------------------------------------------------------------------------------

**************************************************************************************

Host: davis-ws

Timers On : Mon Jan  6 10:54:58 2020
Timers Off: Mon Jan  6 10:54:59 2020

Wall Time:        0.64 seconds

                                                       Time (seconds)
Module                                       User      System        Wall        Calls
Total PK formation time             :      0.033u      0.000s      0.021w      1 calls
HF: Form core H                     :      0.000u      0.000s      0.001w      1 calls
HF: Form S/X                        :      0.000u      0.000s      0.000w      1 calls
HF: Guess                           :      0.200u      0.000s      0.115w      1 calls
SAD Guess                           :      0.183u      0.000s      0.107w      1 calls
HF: Form G                          :      0.000u      0.000s      0.000w     13 calls
JK: D                               :      0.000u      0.000s      0.000w     13 calls
JK: USO2AO                          :      0.000u      0.000s      0.000w     13 calls
JK: JK                              :      0.000u      0.000s      0.000w     13 calls
PK computes JK                      :      0.000u      0.000s      0.000w     13 calls
JK: AO2USO                          :      0.000u      0.000s      0.000w     13 calls
HF: Form F                          :      0.000u      0.000s      0.000w     13 calls
HF: Form D                          :      0.000u      0.000s      0.000w     13 calls
HF: DIIS                            :      0.000u      0.000s      0.004w     12 calls
DIISManager::add_entry              :      0.000u      0.000s      0.000w     12 calls
DIISManager::extrapolate            :      0.000u      0.000s      0.001w     12 calls
bMatrix setup                       :      0.000u      0.000s      0.000w     12 calls
bMatrix pseudoinverse               :      0.000u      0.000s      0.000w     12 calls
New vector                          :      0.000u      0.000s      0.000w     12 calls
HF: Form C                          :      0.000u      0.000s      0.000w     12 calls
ccenergy                            :      0.050u      0.117s      0.115w      1 calls
F build                             :      0.000u      0.000s      0.004w     12 calls
Wmbej build                         :      0.017u      0.017s      0.007w     12 calls
C->Wmbej                            :      0.000u      0.000s      0.001w     12 calls
F->Wmbej                            :      0.000u      0.000s      0.001w     12 calls
E->Wmbej                            :      0.000u      0.017s      0.001w     12 calls
X->Wmbej                            :      0.017u      0.000s      0.004w     12 calls
Z                                   :      0.000u      0.000s      0.001w     12 calls
T2 Build                            :      0.000u      0.000s      0.012w     12 calls
BT2                                 :      0.000u      0.000s      0.001w     12 calls
FT2                                 :      0.000u      0.000s      0.001w     12 calls
WmbejT2                             :      0.000u      0.000s      0.004w     12 calls
CT2                                 :      0.000u      0.000s      0.003w     12 calls

--------------------------------------------------------------------------------------
Total PK formation time             :      0.033u      0.000s      0.021w      1 calls
HF: Form core H                     :      0.000u      0.000s      0.001w      1 calls
HF: Form S/X                        :      0.000u      0.000s      0.000w      1 calls
HF: Guess                           :      0.200u      0.000s      0.115w      1 calls
| SAD Guess                         :      0.183u      0.000s      0.107w      1 calls
HF: Form G                          :      0.000u      0.000s      0.000w     13 calls
| JK: D                             :      0.000u      0.000s      0.000w     13 calls
| JK: USO2AO                        :      0.000u      0.000s      0.000w     13 calls
| JK: JK                            :      0.000u      0.000s      0.000w     13 calls
| | PK computes JK                  :      0.000u      0.000s      0.000w     13 calls
| JK: AO2USO                        :      0.000u      0.000s      0.000w     13 calls
HF: Form F                          :      0.000u      0.000s      0.000w     13 calls
HF: Form D                          :      0.000u      0.000s      0.000w     13 calls
HF: DIIS                            :      0.000u      0.000s      0.004w     12 calls
| DIISManager::add_entry            :      0.000u      0.000s      0.000w     12 calls
| DIISManager::extrapolate          :      0.000u      0.000s      0.001w     12 calls
| | bMatrix setup                   :      0.000u      0.000s      0.000w     12 calls
| | bMatrix pseudoinverse           :      0.000u      0.000s      0.000w     12 calls
| | New vector                      :      0.000u      0.000s      0.000w     12 calls
HF: Form C                          :      0.000u      0.000s      0.000w     12 calls
ccenergy                            :      0.050u      0.117s      0.115w      1 calls
| F build                           :      0.000u      0.000s      0.004w     12 calls
| Wmbej build                       :      0.017u      0.017s      0.007w     12 calls
| | C->Wmbej                        :      0.000u      0.000s      0.001w     12 calls
| | F->Wmbej                        :      0.000u      0.000s      0.001w     12 calls
| | E->Wmbej                        :      0.000u      0.017s      0.001w     12 calls
| | X->Wmbej                        :      0.017u      0.000s      0.004w     12 calls
| Z                                 :      0.000u      0.000s      0.001w     12 calls
| T2 Build                          :      0.000u      0.000s      0.012w     12 calls
| | BT2                             :      0.000u      0.000s      0.001w     12 calls
| | FT2                             :      0.000u      0.000s      0.001w     12 calls
| | WmbejT2                         :      0.000u      0.000s      0.004w     12 calls
| | CT2                             :      0.000u      0.000s      0.003w     12 calls

**************************************************************************************

Host: davis-ws

Timers On : Mon Jan  6 11:28:52 2020
Timers Off: Mon Jan  6 11:28:52 2020

Wall Time:        0.51 seconds

                                                       Time (seconds)
Module                                       User      System        Wall        Calls
Total PK formation time             :      0.033u      0.000s      0.021w      1 calls
HF: Form core H                     :      0.000u      0.000s      0.001w      1 calls
HF: Form S/X                        :      0.000u      0.000s      0.000w      1 calls
HF: Guess                           :      0.183u      0.000s      0.114w      1 calls
SAD Guess                           :      0.167u      0.000s      0.107w      1 calls
HF: Form G                          :      0.000u      0.000s      0.000w     13 calls
JK: D                               :      0.000u      0.000s      0.000w     13 calls
JK: USO2AO                          :      0.000u      0.000s      0.000w     13 calls
JK: JK                              :      0.000u      0.000s      0.000w     13 calls
PK computes JK                      :      0.000u      0.000s      0.000w     13 calls
JK: AO2USO                          :      0.000u      0.000s      0.000w     13 calls
HF: Form F                          :      0.000u      0.000s      0.000w     13 calls
HF: Form D                          :      0.000u      0.000s      0.000w     13 calls
HF: DIIS                            :      0.000u      0.000s      0.004w     12 calls
DIISManager::add_entry              :      0.000u      0.000s      0.000w     12 calls
DIISManager::extrapolate            :      0.000u      0.000s      0.001w     12 calls
bMatrix setup                       :      0.000u      0.000s      0.000w     12 calls
bMatrix pseudoinverse               :      0.000u      0.000s      0.000w     12 calls
New vector                          :      0.000u      0.000s      0.000w     12 calls
HF: Form C                          :      0.000u      0.000s      0.000w     12 calls
trans_ints                          :      0.017u      0.000s      0.002w      1 calls
Trans (OV|OV)                       :      0.017u      0.000s      0.002w      1 calls
Sort chem -> phys                   :      0.000u      0.000s      0.000w      1 calls
Sort (OV|OV) -> <OO|VV>             :      0.000u      0.000s      0.000w      1 calls
Antisymmetrize integrals            :      0.000u      0.000s      0.000w      1 calls
Make <OO||VV>                       :      0.000u      0.000s      0.000w      1 calls
Trans OEI                           :      0.000u      0.000s      0.000w      1 calls
Build Denominators                  :      0.000u      0.000s      0.000w      1 calls
T2(1)                               :      0.000u      0.000s      0.000w      1 calls
MP2 Energy                          :      0.000u      0.000s      0.000w      1 calls

--------------------------------------------------------------------------------------
Total PK formation time             :      0.033u      0.000s      0.021w      1 calls
HF: Form core H                     :      0.000u      0.000s      0.001w      1 calls
HF: Form S/X                        :      0.000u      0.000s      0.000w      1 calls
HF: Guess                           :      0.183u      0.000s      0.114w      1 calls
| SAD Guess                         :      0.167u      0.000s      0.107w      1 calls
HF: Form G                          :      0.000u      0.000s      0.000w     13 calls
| JK: D                             :      0.000u      0.000s      0.000w     13 calls
| JK: USO2AO                        :      0.000u      0.000s      0.000w     13 calls
| JK: JK                            :      0.000u      0.000s      0.000w     13 calls
| | PK computes JK                  :      0.000u      0.000s      0.000w     13 calls
| JK: AO2USO                        :      0.000u      0.000s      0.000w     13 calls
HF: Form F                          :      0.000u      0.000s      0.000w     13 calls
HF: Form D                          :      0.000u      0.000s      0.000w     13 calls
HF: DIIS                            :      0.000u      0.000s      0.004w     12 calls
| DIISManager::add_entry            :      0.000u      0.000s      0.000w     12 calls
| DIISManager::extrapolate          :      0.000u      0.000s      0.001w     12 calls
| | bMatrix setup                   :      0.000u      0.000s      0.000w     12 calls
| | bMatrix pseudoinverse           :      0.000u      0.000s      0.000w     12 calls
| | New vector                      :      0.000u      0.000s      0.000w     12 calls
HF: Form C                          :      0.000u      0.000s      0.000w     12 calls
trans_ints                          :      0.017u      0.000s      0.002w      1 calls
| Trans (OV|OV)                     :      0.017u      0.000s      0.002w      1 calls
| Sort chem -> phys                 :      0.000u      0.000s      0.000w      1 calls
| | Sort (OV|OV) -> <OO|VV>         :      0.000u      0.000s      0.000w      1 calls
| Antisymmetrize integrals          :      0.000u      0.000s      0.000w      1 calls
| | Make <OO||VV>                   :      0.000u      0.000s      0.000w      1 calls
| Trans OEI                         :      0.000u      0.000s      0.000w      1 calls
| Build Denominators                :      0.000u      0.000s      0.000w      1 calls
T2(1)                               :      0.000u      0.000s      0.000w      1 calls
MP2 Energy                          :      0.000u      0.000s      0.000w      1 calls

**************************************************************************************

Host: penguin

Timers On : Fri Jan 17 07:16:42 2020
Timers Off: Fri Jan 17 07:16:42 2020

Wall Time:        0.78 seconds

                                                       Time (seconds)
Module                                       User      System        Wall        Calls
Total PK formation time             :      0.067u      0.000s      0.034w      1 calls
HF: Form core H                     :      0.000u      0.000s      0.001w      1 calls
HF: Form S/X                        :      0.000u      0.000s      0.000w      1 calls
HF: Guess                           :      0.317u      0.000s      0.195w      1 calls
SAD Guess                           :      0.300u      0.000s      0.182w      1 calls
HF: Form G                          :      0.000u      0.000s      0.000w      9 calls
JK: D                               :      0.000u      0.000s      0.000w      9 calls
JK: USO2AO                          :      0.000u      0.000s      0.000w      9 calls
JK: JK                              :      0.000u      0.000s      0.000w      9 calls
PK computes JK                      :      0.000u      0.000s      0.000w      9 calls
JK: AO2USO                          :      0.000u      0.000s      0.000w      9 calls
HF: Form F                          :      0.000u      0.000s      0.000w      9 calls
HF: Form D                          :      0.000u      0.000s      0.000w      9 calls
HF: DIIS                            :      0.033u      0.000s      0.006w      8 calls
DIISManager::add_entry              :      0.000u      0.000s      0.001w      8 calls
DIISManager::extrapolate            :      0.000u      0.000s      0.002w      8 calls
bMatrix setup                       :      0.000u      0.000s      0.002w      8 calls
bMatrix pseudoinverse               :      0.000u      0.000s      0.000w      8 calls
New vector                          :      0.000u      0.000s      0.000w      8 calls
HF: Form C                          :      0.000u      0.000s      0.000w      8 calls
ccenergy                            :      0.050u      0.117s      0.101w      1 calls
F build                             :      0.000u      0.000s      0.003w     10 calls
Wmbej build                         :      0.000u      0.000s      0.004w     10 calls
C->Wmbej                            :      0.000u      0.000s      0.000w     10 calls
F->Wmbej                            :      0.000u      0.000s      0.001w     10 calls
E->Wmbej                            :      0.000u      0.000s      0.001w     10 calls
X->Wmbej                            :      0.000u      0.000s      0.001w     10 calls
Z                                   :      0.000u      0.000s      0.000w     10 calls
T2 Build                            :      0.017u      0.000s      0.007w     10 calls
BT2                                 :      0.000u      0.000s      0.002w     10 calls
ABCD:new                            :      0.000u      0.000s      0.001w     10 calls
ABCD:S                              :      0.000u      0.000s      0.000w     10 calls
ABCD:A                              :      0.000u      0.000s      0.000w     10 calls
ABCD:axpy                           :      0.000u      0.000s      0.000w     10 calls
FT2                                 :      0.000u      0.000s      0.000w     10 calls
WmbejT2                             :      0.017u      0.000s      0.001w     10 calls
CT2                                 :      0.000u      0.000s      0.002w     10 calls

--------------------------------------------------------------------------------------
Total PK formation time             :      0.067u      0.000s      0.034w      1 calls
HF: Form core H                     :      0.000u      0.000s      0.001w      1 calls
HF: Form S/X                        :      0.000u      0.000s      0.000w      1 calls
HF: Guess                           :      0.317u      0.000s      0.195w      1 calls
| SAD Guess                         :      0.300u      0.000s      0.182w      1 calls
HF: Form G                          :      0.000u      0.000s      0.000w      9 calls
| JK: D                             :      0.000u      0.000s      0.000w      9 calls
| JK: USO2AO                        :      0.000u      0.000s      0.000w      9 calls
| JK: JK                            :      0.000u      0.000s      0.000w      9 calls
| | PK computes JK                  :      0.000u      0.000s      0.000w      9 calls
| JK: AO2USO                        :      0.000u      0.000s      0.000w      9 calls
HF: Form F                          :      0.000u      0.000s      0.000w      9 calls
HF: Form D                          :      0.000u      0.000s      0.000w      9 calls
HF: DIIS                            :      0.033u      0.000s      0.006w      8 calls
| DIISManager::add_entry            :      0.000u      0.000s      0.001w      8 calls
| DIISManager::extrapolate          :      0.000u      0.000s      0.002w      8 calls
| | bMatrix setup                   :      0.000u      0.000s      0.002w      8 calls
| | bMatrix pseudoinverse           :      0.000u      0.000s      0.000w      8 calls
| | New vector                      :      0.000u      0.000s      0.000w      8 calls
HF: Form C                          :      0.000u      0.000s      0.000w      8 calls
ccenergy                            :      0.050u      0.117s      0.101w      1 calls
| F build                           :      0.000u      0.000s      0.003w     10 calls
| Wmbej build                       :      0.000u      0.000s      0.004w     10 calls
| | C->Wmbej                        :      0.000u      0.000s      0.000w     10 calls
| | F->Wmbej                        :      0.000u      0.000s      0.001w     10 calls
| | E->Wmbej                        :      0.000u      0.000s      0.001w     10 calls
| | X->Wmbej                        :      0.000u      0.000s      0.001w     10 calls
| Z                                 :      0.000u      0.000s      0.000w     10 calls
| T2 Build                          :      0.017u      0.000s      0.007w     10 calls
| | BT2                             :      0.000u      0.000s      0.002w     10 calls
| | | ABCD:new                      :      0.000u      0.000s      0.001w     10 calls
| | | | ABCD:S                      :      0.000u      0.000s      0.000w     10 calls
| | | | ABCD:A                      :      0.000u      0.000s      0.000w     10 calls
| | | | ABCD:axpy                   :      0.000u      0.000s      0.000w     10 calls
| | FT2                             :      0.000u      0.000s      0.000w     10 calls
| | WmbejT2                         :      0.017u      0.000s      0.001w     10 calls
| | CT2                             :      0.000u      0.000s      0.002w     10 calls

**************************************************************************************

Host: penguin

Timers On : Fri Jan 17 07:17:23 2020
Timers Off: Fri Jan 17 07:17:24 2020

Wall Time:        0.77 seconds

                                                       Time (seconds)
Module                                       User      System        Wall        Calls
Total PK formation time             :      0.050u      0.000s      0.033w      1 calls
HF: Form core H                     :      0.000u      0.000s      0.001w      1 calls
HF: Form S/X                        :      0.000u      0.000s      0.001w      1 calls
HF: Guess                           :      0.317u      0.000s      0.192w      1 calls
SAD Guess                           :      0.300u      0.000s      0.179w      1 calls
HF: Form G                          :      0.000u      0.000s      0.001w     12 calls
JK: D                               :      0.000u      0.000s      0.000w     12 calls
JK: USO2AO                          :      0.000u      0.000s      0.000w     12 calls
JK: JK                              :      0.000u      0.000s      0.000w     12 calls
PK computes JK                      :      0.000u      0.000s      0.000w     12 calls
JK: AO2USO                          :      0.000u      0.000s      0.000w     12 calls
HF: Form F                          :      0.000u      0.000s      0.000w     12 calls
HF: Form D                          :      0.000u      0.000s      0.000w     12 calls
HF: DIIS                            :      0.017u      0.000s      0.006w     11 calls
DIISManager::add_entry              :      0.000u      0.000s      0.001w     11 calls
DIISManager::extrapolate            :      0.017u      0.000s      0.001w     11 calls
bMatrix setup                       :      0.000u      0.000s      0.000w     11 calls
bMatrix pseudoinverse               :      0.017u      0.000s      0.000w     11 calls
New vector                          :      0.000u      0.000s      0.000w     11 calls
HF: Form C                          :      0.000u      0.017s      0.000w     11 calls
ccenergy                            :      0.067u      0.100s      0.099w      1 calls
F build                             :      0.000u      0.000s      0.003w     10 calls
Wmbej build                         :      0.000u      0.000s      0.003w     10 calls
C->Wmbej                            :      0.000u      0.000s      0.000w     10 calls
F->Wmbej                            :      0.000u      0.000s      0.001w     10 calls
E->Wmbej                            :      0.000u      0.000s      0.001w     10 calls
X->Wmbej                            :      0.000u      0.000s      0.001w     10 calls
Z                                   :      0.000u      0.000s      0.000w     10 calls
T2 Build                            :      0.000u      0.017s      0.007w     10 calls
BT2                                 :      0.000u      0.000s      0.002w     10 calls
ABCD:new                            :      0.000u      0.000s      0.001w     10 calls
ABCD:S                              :      0.000u      0.000s      0.000w     10 calls
ABCD:A                              :      0.000u      0.000s      0.000w     10 calls
ABCD:axpy                           :      0.000u      0.000s      0.000w     10 calls
FT2                                 :      0.000u      0.000s      0.000w     10 calls
WmbejT2                             :      0.000u      0.000s      0.001w     10 calls
CT2                                 :      0.000u      0.000s      0.003w     10 calls

--------------------------------------------------------------------------------------
Total PK formation time             :      0.050u      0.000s      0.033w      1 calls
HF: Form core H                     :      0.000u      0.000s      0.001w      1 calls
HF: Form S/X                        :      0.000u      0.000s      0.001w      1 calls
HF: Guess                           :      0.317u      0.000s      0.192w      1 calls
| SAD Guess                         :      0.300u      0.000s      0.179w      1 calls
HF: Form G                          :      0.000u      0.000s      0.001w     12 calls
| JK: D                             :      0.000u      0.000s      0.000w     12 calls
| JK: USO2AO                        :      0.000u      0.000s      0.000w     12 calls
| JK: JK                            :      0.000u      0.000s      0.000w     12 calls
| | PK computes JK                  :      0.000u      0.000s      0.000w     12 calls
| JK: AO2USO                        :      0.000u      0.000s      0.000w     12 calls
HF: Form F                          :      0.000u      0.000s      0.000w     12 calls
HF: Form D                          :      0.000u      0.000s      0.000w     12 calls
HF: DIIS                            :      0.017u      0.000s      0.006w     11 calls
| DIISManager::add_entry            :      0.000u      0.000s      0.001w     11 calls
| DIISManager::extrapolate          :      0.017u      0.000s      0.001w     11 calls
| | bMatrix setup                   :      0.000u      0.000s      0.000w     11 calls
| | bMatrix pseudoinverse           :      0.017u      0.000s      0.000w     11 calls
| | New vector                      :      0.000u      0.000s      0.000w     11 calls
HF: Form C                          :      0.000u      0.017s      0.000w     11 calls
ccenergy                            :      0.067u      0.100s      0.099w      1 calls
| F build                           :      0.000u      0.000s      0.003w     10 calls
| Wmbej build                       :      0.000u      0.000s      0.003w     10 calls
| | C->Wmbej                        :      0.000u      0.000s      0.000w     10 calls
| | F->Wmbej                        :      0.000u      0.000s      0.001w     10 calls
| | E->Wmbej                        :      0.000u      0.000s      0.001w     10 calls
| | X->Wmbej                        :      0.000u      0.000s      0.001w     10 calls
| Z                                 :      0.000u      0.000s      0.000w     10 calls
| T2 Build                          :      0.000u      0.017s      0.007w     10 calls
| | BT2                             :      0.000u      0.000s      0.002w     10 calls
| | | ABCD:new                      :      0.000u      0.000s      0.001w     10 calls
| | | | ABCD:S                      :      0.000u      0.000s      0.000w     10 calls
| | | | ABCD:A                      :      0.000u      0.000s      0.000w     10 calls
| | | | ABCD:axpy                   :      0.000u      0.000s      0.000w     10 calls
| | FT2                             :      0.000u      0.000s      0.000w     10 calls
| | WmbejT2                         :      0.000u      0.000s      0.001w     10 calls
| | CT2                             :      0.000u      0.000s      0.003w     10 calls

**************************************************************************************

Host: penguin

Timers On : Fri Jan 17 07:20:54 2020
Timers Off: Fri Jan 17 07:20:55 2020

Wall Time:        0.89 seconds

                                                       Time (seconds)
Module                                       User      System        Wall        Calls
Total PK formation time             :      0.050u      0.000s      0.034w      1 calls
HF: Form core H                     :      0.000u      0.000s      0.001w      1 calls
HF: Form S/X                        :      0.000u      0.000s      0.000w      1 calls
HF: Guess                           :      0.300u      0.017s      0.182w      1 calls
SAD Guess                           :      0.283u      0.017s      0.170w      1 calls
HF: Form G                          :      0.000u      0.000s      0.001w     12 calls
JK: D                               :      0.000u      0.000s      0.000w     12 calls
JK: USO2AO                          :      0.000u      0.000s      0.000w     12 calls
JK: JK                              :      0.000u      0.000s      0.000w     12 calls
PK computes JK                      :      0.000u      0.000s      0.000w     12 calls
JK: AO2USO                          :      0.000u      0.000s      0.000w     12 calls
HF: Form F                          :      0.000u      0.000s      0.000w     12 calls
HF: Form D                          :      0.000u      0.000s      0.000w     12 calls
HF: DIIS                            :      0.000u      0.000s      0.006w     11 calls
DIISManager::add_entry              :      0.000u      0.000s      0.001w     11 calls
DIISManager::extrapolate            :      0.000u      0.000s      0.001w     11 calls
bMatrix setup                       :      0.000u      0.000s      0.000w     11 calls
bMatrix pseudoinverse               :      0.000u      0.000s      0.000w     11 calls
New vector                          :      0.000u      0.000s      0.000w     11 calls
HF: Form C                          :      0.000u      0.000s      0.000w     11 calls
ccenergy                            :      0.117u      0.250s      0.223w      1 calls
F build                             :      0.000u      0.017s      0.007w     23 calls
Wmbej build                         :      0.017u      0.000s      0.008w     23 calls
C->Wmbej                            :      0.000u      0.000s      0.000w     23 calls
F->Wmbej                            :      0.017u      0.000s      0.003w     23 calls
E->Wmbej                            :      0.000u      0.000s      0.001w     23 calls
X->Wmbej                            :      0.000u      0.000s      0.003w     23 calls
Z                                   :      0.000u      0.000s      0.000w     23 calls
T2 Build                            :      0.017u      0.033s      0.015w     23 calls
BT2                                 :      0.000u      0.000s      0.003w     23 calls
ABCD:new                            :      0.000u      0.000s      0.003w     23 calls
ABCD:S                              :      0.000u      0.000s      0.000w     23 calls
ABCD:A                              :      0.000u      0.000s      0.000w     23 calls
ABCD:axpy                           :      0.000u      0.000s      0.001w     23 calls
FT2                                 :      0.017u      0.000s      0.001w     23 calls
WmbejT2                             :      0.000u      0.017s      0.002w     23 calls
CT2                                 :      0.000u      0.000s      0.005w     23 calls

--------------------------------------------------------------------------------------
Total PK formation time             :      0.050u      0.000s      0.034w      1 calls
HF: Form core H                     :      0.000u      0.000s      0.001w      1 calls
HF: Form S/X                        :      0.000u      0.000s      0.000w      1 calls
HF: Guess                           :      0.300u      0.017s      0.182w      1 calls
| SAD Guess                         :      0.283u      0.017s      0.170w      1 calls
HF: Form G                          :      0.000u      0.000s      0.001w     12 calls
| JK: D                             :      0.000u      0.000s      0.000w     12 calls
| JK: USO2AO                        :      0.000u      0.000s      0.000w     12 calls
| JK: JK                            :      0.000u      0.000s      0.000w     12 calls
| | PK computes JK                  :      0.000u      0.000s      0.000w     12 calls
| JK: AO2USO                        :      0.000u      0.000s      0.000w     12 calls
HF: Form F                          :      0.000u      0.000s      0.000w     12 calls
HF: Form D                          :      0.000u      0.000s      0.000w     12 calls
HF: DIIS                            :      0.000u      0.000s      0.006w     11 calls
| DIISManager::add_entry            :      0.000u      0.000s      0.001w     11 calls
| DIISManager::extrapolate          :      0.000u      0.000s      0.001w     11 calls
| | bMatrix setup                   :      0.000u      0.000s      0.000w     11 calls
| | bMatrix pseudoinverse           :      0.000u      0.000s      0.000w     11 calls
| | New vector                      :      0.000u      0.000s      0.000w     11 calls
HF: Form C                          :      0.000u      0.000s      0.000w     11 calls
ccenergy                            :      0.117u      0.250s      0.223w      1 calls
| F build                           :      0.000u      0.017s      0.007w     23 calls
| Wmbej build                       :      0.017u      0.000s      0.008w     23 calls
| | C->Wmbej                        :      0.000u      0.000s      0.000w     23 calls
| | F->Wmbej                        :      0.017u      0.000s      0.003w     23 calls
| | E->Wmbej                        :      0.000u      0.000s      0.001w     23 calls
| | X->Wmbej                        :      0.000u      0.000s      0.003w     23 calls
| Z                                 :      0.000u      0.000s      0.000w     23 calls
| T2 Build                          :      0.017u      0.033s      0.015w     23 calls
| | BT2                             :      0.000u      0.000s      0.003w     23 calls
| | | ABCD:new                      :      0.000u      0.000s      0.003w     23 calls
| | | | ABCD:S                      :      0.000u      0.000s      0.000w     23 calls
| | | | ABCD:A                      :      0.000u      0.000s      0.000w     23 calls
| | | | ABCD:axpy                   :      0.000u      0.000s      0.001w     23 calls
| | FT2                             :      0.017u      0.000s      0.001w     23 calls
| | WmbejT2                         :      0.000u      0.017s      0.002w     23 calls
| | CT2                             :      0.000u      0.000s      0.005w     23 calls

**************************************************************************************

Host: penguin

Timers On : Fri Jan 17 07:22:08 2020
Timers Off: Fri Jan 17 07:22:09 2020

Wall Time:        1.16 seconds

                                                       Time (seconds)
Module                                       User      System        Wall        Calls
Total PK formation time             :      0.067u      0.000s      0.036w      1 calls
HF: Form core H                     :      0.000u      0.000s      0.001w      1 calls
HF: Form S/X                        :      0.000u      0.000s      0.000w      1 calls
HF: Guess                           :      0.317u      0.000s      0.192w      1 calls
SAD Guess                           :      0.300u      0.000s      0.178w      1 calls
HF: Form G                          :      0.000u      0.000s      0.001w     13 calls
JK: D                               :      0.000u      0.000s      0.000w     13 calls
JK: USO2AO                          :      0.000u      0.000s      0.000w     13 calls
JK: JK                              :      0.000u      0.000s      0.000w     13 calls
PK computes JK                      :      0.000u      0.000s      0.000w     13 calls
JK: AO2USO                          :      0.000u      0.000s      0.000w     13 calls
HF: Form F                          :      0.000u      0.000s      0.000w     13 calls
HF: Form D                          :      0.000u      0.000s      0.000w     13 calls
HF: DIIS                            :      0.033u      0.000s      0.008w     12 calls
DIISManager::add_entry              :      0.000u      0.000s      0.001w     12 calls
DIISManager::extrapolate            :      0.000u      0.000s      0.002w     12 calls
bMatrix setup                       :      0.000u      0.000s      0.001w     12 calls
bMatrix pseudoinverse               :      0.000u      0.000s      0.001w     12 calls
New vector                          :      0.000u      0.000s      0.000w     12 calls
HF: Form C                          :      0.000u      0.000s      0.000w     12 calls
ccenergy                            :      0.283u      0.467s      0.447w      1 calls
F build                             :      0.000u      0.000s      0.015w     47 calls
Wmbej build                         :      0.017u      0.033s      0.018w     47 calls
C->Wmbej                            :      0.017u      0.000s      0.001w     47 calls
F->Wmbej                            :      0.000u      0.017s      0.008w     47 calls
E->Wmbej                            :      0.000u      0.017s      0.002w     47 calls
X->Wmbej                            :      0.000u      0.000s      0.005w     47 calls
Z                                   :      0.000u      0.000s      0.001w     47 calls
T2 Build                            :      0.050u      0.033s      0.034w     47 calls
BT2                                 :      0.000u      0.000s      0.008w     47 calls
ABCD:new                            :      0.000u      0.000s      0.007w     47 calls
ABCD:S                              :      0.000u      0.000s      0.001w     47 calls
ABCD:A                              :      0.000u      0.000s      0.001w     47 calls
ABCD:axpy                           :      0.000u      0.000s      0.001w     47 calls
FT2                                 :      0.017u      0.000s      0.002w     47 calls
WmbejT2                             :      0.000u      0.017s      0.006w     47 calls
CT2                                 :      0.017u      0.017s      0.011w     47 calls

--------------------------------------------------------------------------------------
Total PK formation time             :      0.067u      0.000s      0.036w      1 calls
HF: Form core H                     :      0.000u      0.000s      0.001w      1 calls
HF: Form S/X                        :      0.000u      0.000s      0.000w      1 calls
HF: Guess                           :      0.317u      0.000s      0.192w      1 calls
| SAD Guess                         :      0.300u      0.000s      0.178w      1 calls
HF: Form G                          :      0.000u      0.000s      0.001w     13 calls
| JK: D                             :      0.000u      0.000s      0.000w     13 calls
| JK: USO2AO                        :      0.000u      0.000s      0.000w     13 calls
| JK: JK                            :      0.000u      0.000s      0.000w     13 calls
| | PK computes JK                  :      0.000u      0.000s      0.000w     13 calls
| JK: AO2USO                        :      0.000u      0.000s      0.000w     13 calls
HF: Form F                          :      0.000u      0.000s      0.000w     13 calls
HF: Form D                          :      0.000u      0.000s      0.000w     13 calls
HF: DIIS                            :      0.033u      0.000s      0.008w     12 calls
| DIISManager::add_entry            :      0.000u      0.000s      0.001w     12 calls
| DIISManager::extrapolate          :      0.000u      0.000s      0.002w     12 calls
| | bMatrix setup                   :      0.000u      0.000s      0.001w     12 calls
| | bMatrix pseudoinverse           :      0.000u      0.000s      0.001w     12 calls
| | New vector                      :      0.000u      0.000s      0.000w     12 calls
HF: Form C                          :      0.000u      0.000s      0.000w     12 calls
ccenergy                            :      0.283u      0.467s      0.447w      1 calls
| F build                           :      0.000u      0.000s      0.015w     47 calls
| Wmbej build                       :      0.017u      0.033s      0.018w     47 calls
| | C->Wmbej                        :      0.017u      0.000s      0.001w     47 calls
| | F->Wmbej                        :      0.000u      0.017s      0.008w     47 calls
| | E->Wmbej                        :      0.000u      0.017s      0.002w     47 calls
| | X->Wmbej                        :      0.000u      0.000s      0.005w     47 calls
| Z                                 :      0.000u      0.000s      0.001w     47 calls
| T2 Build                          :      0.050u      0.033s      0.034w     47 calls
| | BT2                             :      0.000u      0.000s      0.008w     47 calls
| | | ABCD:new                      :      0.000u      0.000s      0.007w     47 calls
| | | | ABCD:S                      :      0.000u      0.000s      0.001w     47 calls
| | | | ABCD:A                      :      0.000u      0.000s      0.001w     47 calls
| | | | ABCD:axpy                   :      0.000u      0.000s      0.001w     47 calls
| | FT2                             :      0.017u      0.000s      0.002w     47 calls
| | WmbejT2                         :      0.000u      0.017s      0.006w     47 calls
| | CT2                             :      0.017u      0.017s      0.011w     47 calls

**************************************************************************************

Host: ws-b14-mmd

Timers On : Mon Jan 20 17:47:34 2020
Timers Off: Mon Jan 20 17:47:35 2020

Wall Time:        0.83 seconds

                                                       Time (seconds)
Module                                       User      System        Wall        Calls
Total PK formation time             :      0.067u      0.000s      0.034w      1 calls
HF: Form core H                     :      0.000u      0.000s      0.001w      1 calls
HF: Form S/X                        :      0.000u      0.000s      0.000w      1 calls
HF: Guess                           :      0.267u      0.000s      0.161w      1 calls
SAD Guess                           :      0.250u      0.000s      0.150w      1 calls
HF: Form G                          :      0.000u      0.000s      0.000w     13 calls
JK: D                               :      0.000u      0.000s      0.000w     13 calls
JK: USO2AO                          :      0.000u      0.000s      0.000w     13 calls
JK: JK                              :      0.000u      0.000s      0.000w     13 calls
PK computes JK                      :      0.000u      0.000s      0.000w     13 calls
JK: AO2USO                          :      0.000u      0.000s      0.000w     13 calls
HF: Form F                          :      0.000u      0.000s      0.000w     13 calls
HF: Form D                          :      0.000u      0.000s      0.000w     13 calls
HF: DIIS                            :      0.033u      0.000s      0.005w     12 calls
DIISManager::add_entry              :      0.000u      0.000s      0.000w     12 calls
DIISManager::extrapolate            :      0.000u      0.000s      0.001w     12 calls
bMatrix setup                       :      0.000u      0.000s      0.000w     12 calls
bMatrix pseudoinverse               :      0.000u      0.000s      0.000w     12 calls
New vector                          :      0.000u      0.000s      0.000w     12 calls
HF: Form C                          :      0.000u      0.000s      0.000w     12 calls
trans_ints                          :      0.000u      0.000s      0.002w      1 calls
Trans (OV|OV)                       :      0.000u      0.000s      0.002w      1 calls
Sort chem -> phys                   :      0.000u      0.000s      0.000w      1 calls
Sort (OV|OV) -> <OO|VV>             :      0.000u      0.000s      0.000w      1 calls
Trans OEI                           :      0.000u      0.000s      0.000w      1 calls
Build Denominators                  :      0.000u      0.000s      0.000w      1 calls
T2(1)                               :      0.000u      0.000s      0.000w      1 calls
MP2 Energy                          :      0.000u      0.000s      0.000w      1 calls

--------------------------------------------------------------------------------------
Total PK formation time             :      0.067u      0.000s      0.034w      1 calls
HF: Form core H                     :      0.000u      0.000s      0.001w      1 calls
HF: Form S/X                        :      0.000u      0.000s      0.000w      1 calls
HF: Guess                           :      0.267u      0.000s      0.161w      1 calls
| SAD Guess                         :      0.250u      0.000s      0.150w      1 calls
HF: Form G                          :      0.000u      0.000s      0.000w     13 calls
| JK: D                             :      0.000u      0.000s      0.000w     13 calls
| JK: USO2AO                        :      0.000u      0.000s      0.000w     13 calls
| JK: JK                            :      0.000u      0.000s      0.000w     13 calls
| | PK computes JK                  :      0.000u      0.000s      0.000w     13 calls
| JK: AO2USO                        :      0.000u      0.000s      0.000w     13 calls
HF: Form F                          :      0.000u      0.000s      0.000w     13 calls
HF: Form D                          :      0.000u      0.000s      0.000w     13 calls
HF: DIIS                            :      0.033u      0.000s      0.005w     12 calls
| DIISManager::add_entry            :      0.000u      0.000s      0.000w     12 calls
| DIISManager::extrapolate          :      0.000u      0.000s      0.001w     12 calls
| | bMatrix setup                   :      0.000u      0.000s      0.000w     12 calls
| | bMatrix pseudoinverse           :      0.000u      0.000s      0.000w     12 calls
| | New vector                      :      0.000u      0.000s      0.000w     12 calls
HF: Form C                          :      0.000u      0.000s      0.000w     12 calls
trans_ints                          :      0.000u      0.000s      0.002w      1 calls
| Trans (OV|OV)                     :      0.000u      0.000s      0.002w      1 calls
| Sort chem -> phys                 :      0.000u      0.000s      0.000w      1 calls
| | Sort (OV|OV) -> <OO|VV>         :      0.000u      0.000s      0.000w      1 calls
| Trans OEI                         :      0.000u      0.000s      0.000w      1 calls
| Build Denominators                :      0.000u      0.000s      0.000w      1 calls
T2(1)                               :      0.000u      0.000s      0.000w      1 calls
MP2 Energy                          :      0.000u      0.000s      0.000w      1 calls

**************************************************************************************

Host: ws-b14-mmd

Timers On : Mon Jan 20 18:26:27 2020
Timers Off: Mon Jan 20 18:26:28 2020

Wall Time:        0.81 seconds

                                                       Time (seconds)
Module                                       User      System        Wall        Calls
Total PK formation time             :      0.050u      0.000s      0.028w      1 calls
HF: Form core H                     :      0.000u      0.000s      0.001w      1 calls
HF: Form S/X                        :      0.000u      0.000s      0.000w      1 calls
HF: Guess                           :      0.267u      0.000s      0.157w      1 calls
SAD Guess                           :      0.250u      0.000s      0.146w      1 calls
HF: Form G                          :      0.000u      0.000s      0.001w     26 calls
JK: D                               :      0.000u      0.000s      0.000w     26 calls
JK: USO2AO                          :      0.000u      0.000s      0.000w     26 calls
JK: JK                              :      0.000u      0.000s      0.000w     26 calls
PK computes JK                      :      0.000u      0.000s      0.000w     26 calls
JK: AO2USO                          :      0.000u      0.000s      0.000w     26 calls
HF: Form F                          :      0.000u      0.000s      0.000w     26 calls
HF: Form D                          :      0.000u      0.000s      0.000w     26 calls
HF: DIIS                            :      0.000u      0.000s      0.011w     25 calls
DIISManager::add_entry              :      0.000u      0.000s      0.001w     25 calls
DIISManager::extrapolate            :      0.000u      0.000s      0.003w     25 calls
bMatrix setup                       :      0.000u      0.000s      0.001w     25 calls
bMatrix pseudoinverse               :      0.000u      0.000s      0.001w     25 calls
New vector                          :      0.000u      0.000s      0.000w     25 calls
HF: Form C                          :      0.000u      0.000s      0.001w     25 calls
trans_ints                          :      0.017u      0.000s      0.010w      1 calls
Trans (OO|OO)                       :      0.000u      0.000s      0.003w      1 calls
Trans (OO|OV)                       :      0.000u      0.000s      0.000w      1 calls
Trans (OO|VV)                       :      0.000u      0.000s      0.001w      1 calls
Trans (OV|OO)                       :      0.000u      0.000s      0.001w      1 calls
Trans (OV|OV)                       :      0.017u      0.000s      0.000w      1 calls
Trans (OV|VV)                       :      0.000u      0.000s      0.001w      1 calls
Trans (VV|OO)                       :      0.000u      0.000s      0.002w      1 calls
Trans (VV|OV)                       :      0.000u      0.000s      0.000w      1 calls
Sort chem -> phys                   :      0.000u      0.000s      0.001w      1 calls
Sort (OO|OO) -> <OO|OO>             :      0.000u      0.000s      0.000w      1 calls
Sort (OO|OV) -> <OO|OV>             :      0.000u      0.000s      0.000w      1 calls
Sort (OV|OV) -> <OO|VV>             :      0.000u      0.000s      0.000w      1 calls
Sort (OO|VV) -> <OV|OV>             :      0.000u      0.000s      0.000w      1 calls
Sort (OV|VV) -> <OV|VV>             :      0.000u      0.000s      0.000w      1 calls
Antisymmetrize integrals            :      0.000u      0.000s      0.000w      1 calls
Make <OO||OO>                       :      0.000u      0.000s      0.000w      1 calls
Make <OO||OV>                       :      0.000u      0.000s      0.000w      1 calls
Make <OO||VV>                       :      0.000u      0.000s      0.000w      1 calls
Make <OV||OV>                       :      0.000u      0.000s      0.000w      1 calls
Trans OEI                           :      0.000u      0.000s      0.000w      1 calls
Build Denominators                  :      0.000u      0.000s      0.000w      1 calls
T1(1)                               :      0.000u      0.000s      0.000w      1 calls
T2(1)                               :      0.000u      0.000s      0.000w      1 calls
MP2 Energy                          :      0.000u      0.000s      0.001w      1 calls

--------------------------------------------------------------------------------------
Total PK formation time             :      0.050u      0.000s      0.028w      1 calls
HF: Form core H                     :      0.000u      0.000s      0.001w      1 calls
HF: Form S/X                        :      0.000u      0.000s      0.000w      1 calls
HF: Guess                           :      0.267u      0.000s      0.157w      1 calls
| SAD Guess                         :      0.250u      0.000s      0.146w      1 calls
HF: Form G                          :      0.000u      0.000s      0.001w     26 calls
| JK: D                             :      0.000u      0.000s      0.000w     26 calls
| JK: USO2AO                        :      0.000u      0.000s      0.000w     26 calls
| JK: JK                            :      0.000u      0.000s      0.000w     26 calls
| | PK computes JK                  :      0.000u      0.000s      0.000w     26 calls
| JK: AO2USO                        :      0.000u      0.000s      0.000w     26 calls
HF: Form F                          :      0.000u      0.000s      0.000w     26 calls
HF: Form D                          :      0.000u      0.000s      0.000w     26 calls
HF: DIIS                            :      0.000u      0.000s      0.011w     25 calls
| DIISManager::add_entry            :      0.000u      0.000s      0.001w     25 calls
| DIISManager::extrapolate          :      0.000u      0.000s      0.003w     25 calls
| | bMatrix setup                   :      0.000u      0.000s      0.001w     25 calls
| | bMatrix pseudoinverse           :      0.000u      0.000s      0.001w     25 calls
| | New vector                      :      0.000u      0.000s      0.000w     25 calls
HF: Form C                          :      0.000u      0.000s      0.001w     25 calls
trans_ints                          :      0.017u      0.000s      0.010w      1 calls
| Trans (OO|OO)                     :      0.000u      0.000s      0.003w      1 calls
| Trans (OO|OV)                     :      0.000u      0.000s      0.000w      1 calls
| Trans (OO|VV)                     :      0.000u      0.000s      0.001w      1 calls
| Trans (OV|OO)                     :      0.000u      0.000s      0.001w      1 calls
| Trans (OV|OV)                     :      0.017u      0.000s      0.000w      1 calls
| Trans (OV|VV)                     :      0.000u      0.000s      0.001w      1 calls
| Trans (VV|OO)                     :      0.000u      0.000s      0.002w      1 calls
| Trans (VV|OV)                     :      0.000u      0.000s      0.000w      1 calls
| Sort chem -> phys                 :      0.000u      0.000s      0.001w      1 calls
| | Sort (OO|OO) -> <OO|OO>         :      0.000u      0.000s      0.000w      1 calls
| | Sort (OO|OV) -> <OO|OV>         :      0.000u      0.000s      0.000w      1 calls
| | Sort (OV|OV) -> <OO|VV>         :      0.000u      0.000s      0.000w      1 calls
| | Sort (OO|VV) -> <OV|OV>         :      0.000u      0.000s      0.000w      1 calls
| | Sort (OV|VV) -> <OV|VV>         :      0.000u      0.000s      0.000w      1 calls
| Antisymmetrize integrals          :      0.000u      0.000s      0.000w      1 calls
| | Make <OO||OO>                   :      0.000u      0.000s      0.000w      1 calls
| | Make <OO||OV>                   :      0.000u      0.000s      0.000w      1 calls
| | Make <OO||VV>                   :      0.000u      0.000s      0.000w      1 calls
| | Make <OV||OV>                   :      0.000u      0.000s      0.000w      1 calls
| Trans OEI                         :      0.000u      0.000s      0.000w      1 calls
| Build Denominators                :      0.000u      0.000s      0.000w      1 calls
T1(1)                               :      0.000u      0.000s      0.000w      1 calls
T2(1)                               :      0.000u      0.000s      0.000w      1 calls
MP2 Energy                          :      0.000u      0.000s      0.001w      1 calls

**************************************************************************************
