
Host: penguin

Timers On : Sun Jan  5 18:03:32 2020
Timers Off: Sun Jan  5 18:04:02 2020

Wall Time:       30.35 seconds

                                                       Time (seconds)
Module                                       User      System        Wall        Calls

--------------------------------------------------------------------------------------

**************************************************************************************
